default_name
 53526
  25.9738926  41.3728956  39.1418317  26.1757957  40.9873767  38.1424767
  26.8355632  41.6751841  37.6135852  25.2388834  40.8894569  37.5941100
  26.8427957  39.6303767  38.2064767  27.0937957  39.0933767  39.2934767
  27.1547957  39.0233767  37.1114767  26.9352489  39.4153922  36.2069203
  27.7977957  37.7163767  37.1604767  28.2666586  37.5718219  38.1338064
  26.7697957  36.6053767  36.9434767  25.9818166  36.7491401  37.6827468
  26.3580638  36.7407390  35.9433498  27.3347957  35.2003767  37.0724767
  28.1357057  35.0748412  36.3438583  27.7365834  35.0768791  38.0781690
  26.2907957  34.1293767  36.8334767  25.1077957  34.4253767  36.6684767
  26.7247957  32.8753767  36.8114767  26.0716718  32.1208352  36.6559206
  27.7062055  32.6813681  36.9503896  28.9007957  37.6183767  36.1134767
  28.7327957  36.9613767  35.0874767  30.0307957  38.2683767  36.3794767
  30.1281100  38.7817343  37.2438223  31.1297957  38.3083767  35.4254767
  30.8970680  37.6602284  34.5805858  31.3677957  39.7273767  34.9024767
  32.2686495  39.7427314  34.2890227  30.5143332  40.0416431  34.3016952
  31.6027957  40.9813767  36.1814767  32.3837957  37.7643767  36.0914767
  32.4587957  37.6403767  37.3144767  33.3707957  37.4363767  35.2624767
  33.2170662  37.5105335  34.2670033  34.6567957  36.9403767  35.7264767
  34.6674438  36.9358444  36.8164149  34.9267957  35.5203767  35.2294767
  34.2445806  34.8269083  35.7211914  34.7734242  35.4769615  34.1511946
  36.6127957  34.9623767  35.5654767  35.7707957  37.8613767  35.2524767
  35.7527957  38.3393767  34.1144767  36.7167957  38.1253767  36.1544767
  36.5329323  37.8671653  37.1134452  37.9507957  38.8573767  35.8564767
  38.3488816  39.2972281  36.7708932  39.0177957  37.9333767  35.2514767
  39.0197527  37.0013834  35.8167066  38.7527957  37.6353767  33.7844767
  38.7511506  38.5669122  33.2184922  39.5330452  36.9785576  33.3999009
  37.7839157  37.1466935  33.6817108  40.3037957  38.5533767  35.3664767
  40.9719328  37.9768165  34.9886255  37.7047957  40.0663767  34.9574767
  38.5527957  40.4333767  34.1404767  36.5497957  40.7093767  35.1114767
  35.7825796  40.2883786  35.6156983  36.3437957  42.0163767  34.5084767
  37.2022422  42.6526592  34.7236823  36.1817957  41.9123767  32.9984767
  36.0563964  42.9155320  32.5909798  37.0819636  41.4611423  32.5811215
  35.0567957  41.1213767  32.6594767  34.9768820  41.0714991  31.7041099
  35.1237957  42.6853767  35.1224767  34.4037957  42.0963767  35.9314767
  34.9107957  43.9373767  34.7144767  35.5227205  44.3604346  34.0313446
  33.8377957  44.7453767  35.2734767  33.7143034  44.5627526  36.3409491
  34.1267957  46.2353767  35.0394767  34.1590395  46.4260352  33.9667652
  33.0437957  47.0943767  35.6744767  33.0112584  46.9045980  36.7473355
  33.2647771  48.1471848  35.4987977  32.0782253  46.8477377  35.2329541
  35.5057957  46.6063767  35.5934767  35.4357497  46.5781223  36.6808571
  36.2063326  45.8429411  35.2550780  35.9937957  47.9653767  35.1564767
  35.2939611  48.7294285  35.4949382  36.9759662  48.1557353  35.5891476
  36.0645418  47.9942480  34.0691583  32.5127957  44.3383767  34.6494767
  32.4597957  43.8923767  33.4964767  31.4317957  44.4863767  35.4114767
  31.5344468  44.6896452  36.3954707  30.0897957  44.3093767  34.8804767
  30.0396814  44.7525328  33.8858912  29.7027957  42.8293767  34.7774767
  28.6755285  42.7457445  34.4227559  30.3703373  42.3265887  34.0776964
  29.7897957  41.8833767  36.3024767  29.0917957  45.0503767  35.7554767
  29.3707957  45.3743767  36.9124767  27.9247957  45.3243767  35.1794767
  27.8162560  45.0543873  34.2123034  26.8327957  46.0483767  35.8224767
  26.0421202  46.2328363  35.0952174  26.2467957  45.2463767  36.9904767
  25.9143432  44.2776713  36.6174025  27.0254267  45.0991563  37.7389151
  25.1517957  45.9273767  37.5764767  24.8030360  45.4064757  38.3035453
  27.2477957  47.4313767  36.3074767  26.5327957  48.0413767  37.1104767
  28.3837957  47.9433767  35.8424767  28.9879973  47.3991458  35.2434338
  28.8147957  49.2763767  36.2274767  28.6215798  49.4382991  37.2879238
  30.3137957  49.4393767  35.9734767  30.7595853  48.6369218  36.5612157
  30.4712950  49.2429409  34.9129547  30.9697957  50.7713767  36.3484767
  30.5449405  51.5528965  35.7185357  30.7417957  51.1173767  37.8034767
  31.1668163  50.3364905  38.4340900  31.2223409  52.0689523  38.0308114
  29.6717229  51.1963317  37.9953376  32.4567957  50.7083767  36.0624767
  32.6153873  50.5143848  35.0016679  32.9194744  51.6581409  36.3307632
  32.9065033  49.9072296  36.6490135  28.0177957  50.3293767  35.4624767
  27.3167957  50.0323767  34.4914767  28.1027957  51.5713767  35.9344767
  28.5841019  51.7326443  36.8076528  27.4697957  52.7063767  35.2744767
  26.9628750  52.3763245  34.3677264  26.4337957  53.3473767  36.2104767
  25.6002016  52.6487859  36.2825254  26.9021656  53.4554821  37.1887624
  25.9247957  54.6923767  35.7444767  26.5457957  55.8663767  36.1464767
  27.4112125  55.8031343  36.8061386  26.0867957  57.0983767  35.7264767
  26.5860878  58.0123703  36.0480745  24.9897957  57.1683767  34.8974767
  24.5307957  58.3963767  34.4784767  25.0481020  59.1278285  34.8234001
  24.3527957  56.0183767  34.4854767  23.4848356  56.0735198  33.8284341
  24.8207957  54.7893767  34.9104767  24.3206800  53.8753367  34.5902968
  28.4717957  53.7543767  34.8144767  28.4637957  54.1403767  33.6414767
  29.3467957  54.2253767  35.7004767  29.3538539  53.8635261  36.6434050
  30.2737957  55.3043767  35.3654767  30.3453855  55.3988719  34.2819433
  29.7987957  56.6373767  35.9414767  28.8418289  56.8691359  35.4739283
  29.6541352  56.4938671  37.0122607  30.7637957  57.7833767  35.7114767
  31.6239756  57.6510580  36.3677412  31.0936893  57.7649491  34.6727599
  30.1397957  59.1343767  35.9974767  28.9657957  59.2253767  36.3564767
  30.9227957  60.1923767  35.8354767  30.5589471  61.1178620  36.0120909
  31.8793686  60.0677882  35.5362320  31.6627957  54.9583767  35.8824767
  31.8057957  54.4193767  36.9834767  32.6747957  55.2693767  35.0814767
  32.4665725  55.6087280  34.1532617  34.0687957  55.1163767  35.4624767
  34.1729474  55.2524253  36.5389257  34.5787957  53.7223767  35.0944767
  33.7405158  53.0803346  35.3649726  34.7158819  53.7038339  34.0132905
  35.8507957  53.2153767  35.7784767  35.7407958  53.3120452  36.8585953
  36.0857957  51.7583767  35.4224767  36.1963618  51.6609703  34.3424832
  36.9928361  51.4056153  35.9133310  35.2371521  51.1609673  35.7556530
  37.0607957  54.0513767  35.4084767  36.8966182  55.0845372  35.7146213
  37.9427917  53.6588075  35.9145140  37.2138905  54.0125080  34.3299823
  34.8997957  56.1823767  34.7614767  34.8037957  56.3643767  33.5474767
  35.7157957  56.8993767  35.5284767  35.8064144  56.7566667  36.5242284
  36.4797957  57.9733767  34.9134767  36.9534084  57.6093486  34.0017346
  35.5717957  59.1553767  34.5554767  36.2198127  59.9603538  34.2087996
  34.9310299  58.8274173  33.7369648  34.7137957  59.6553767  35.6984767
  33.9607795  58.9050935  35.9396042  35.3633631  59.8075578  36.5604526
  34.0447957  60.9783767  35.3854767  34.5557957  61.7153767  34.5154767
  33.0047957  61.2803767  36.0064767  32.6501184  62.1357797  35.7541499
  37.5957957  58.4503767  35.8264767  37.3627957  58.7533767  36.9964767
  32.7345318  60.6071692  36.6351483  34.0722104  62.5353904  34.3886076
  35.3424250  61.3361191  34.1176135  38.8007957  58.5333767  35.2724767
  39.0065318  58.0325309  34.4198775  39.8627957  59.3123767  35.8874767
  39.8788409  59.1280362  36.9616556  41.2197957  58.9273767  35.3064767
  41.2231956  57.8554237  35.1089814  41.3683706  59.4688920  34.3722462
  42.3647957  59.2503767  36.2394767  42.2587957  60.1403767  37.0804767
  43.4687957  58.5293767  36.0954767  44.2639313  58.7040785  36.6932547
  43.5092111  57.8089920  35.3887143  39.5687957  60.7873767  35.6454767
  38.5597957  61.1283767  35.0204767  40.4387957  61.6653767  36.1394767
  41.2526401  61.3633956  36.6557752  40.2127957  63.0953767  35.9814767
  40.0244086  63.3232880  34.9323505  39.0037957  63.5483767  36.8054767
  38.2946936  62.7209990  36.7786520  39.3414343  63.7037601  37.8301504
  38.3317957  64.8033767  36.3014767  38.9667957  66.0343767  36.3744767
  39.9693715  66.0844720  36.7992494  38.3507957  67.1843767  35.9204767
  38.8638103  68.1444476  35.9768832  37.0787957  67.1123767  35.3934767
  36.4597957  68.2533767  34.9424767  37.0023902  69.0390017  35.0423980
  36.4247957  65.9023767  35.3164767  35.4194575  65.8449496  34.8992265
  37.0497957  64.7583767  35.7714767  36.5359852  63.7985720  35.7178697
  41.4577957  63.8553767  36.4084767  42.0937957  63.4993767  37.4044767
  41.7937957  64.8983767  35.6564767  41.2838990  65.0742613  34.8025627
  42.9107957  65.7763767  35.9884767  42.7066155  66.2837042  36.9313598
  44.2127957  64.9833767  36.1314767  45.0615854  65.6653902  36.0813485
  44.2198112  64.4652771  37.0904468  44.4937957  63.7093767  34.8904767
  43.0727957  66.8583767  34.9284767  43.0207957  66.5763767  33.7304767
  43.2657957  68.0813767  35.2894767  43.3136296  68.3464079  36.2629087
  43.4207957  69.1193767  34.2844767  43.3453253  68.6778729  33.2907568
  42.6375554  69.8669977  34.4097682  44.3959407  69.5929940  34.3979617
  30.1116508  24.5628637  41.7104879  29.9237957  24.7823767  40.6594767
  29.1587760  25.5547468  40.5801830  29.5811066  23.8791112  40.1547248
  31.1797957  25.2733767  39.9724767  32.2457957  25.3843767  40.5934767
  31.1397957  25.5813767  38.7204767  30.2975329  25.4708142  38.1741539
  32.3427957  26.0553767  38.0474767  33.0508635  26.4384246  38.7823328
  33.0077957  24.9153767  37.2764767  32.9221276  23.9882502  37.8432189
  32.5352396  24.7900689  36.3022649  34.4667957  25.1273767  37.0204767
  35.0287957  26.3803767  36.8964767  34.5159350  27.2478435  36.9641153
  36.3257957  26.2603767  36.6784767  36.9518412  27.1434143  36.5503732
  36.6267957  24.9743767  36.6584767  37.5453653  24.5810898  36.5113198
  35.4827957  24.2453767  36.8714767  35.5264743  23.1564580  36.8926755
  31.9947957  27.2033767  37.1094767  31.1807957  27.0453767  36.2004767
  32.6087957  28.3633767  37.3424767  33.2416558  28.4516869  38.1246460
  32.3477957  29.5443767  36.5274767  31.6060457  29.3114392  35.7635093
  31.8117957  30.6823767  37.3984767  30.9009524  30.2693919  37.8319594
  32.5388727  30.8665493  38.1893873  31.4867957  31.9993767  36.6874767
  31.2062769  31.7868933  35.6558466  30.3407957  32.7093767  37.3874767
  30.6207645  32.9226204  38.4190985  30.1215429  33.6436056  36.8705190
  29.4565755  32.0721018  37.3758262  32.7027957  32.9083767  36.6214767
  33.5017472  32.4081279  36.0741861  32.4377153  33.8341824  36.1108718
  33.0423746  33.1357516  37.6319646  33.6077957  29.9813767  35.7914767
  33.5747957  30.2103767  34.5784767  34.7197957  30.1003767  36.5134767
  34.6976956  29.8948869  37.5021045  35.9687957  30.5693767  35.9344767
  35.9233186  30.4688668  34.8500742  36.2307957  32.0393767  36.2794767
  35.3315997  32.4772535  36.7128468  37.0483332  32.1044824  36.9974557
  36.6817957  33.0603767  34.8604767  37.1127957  29.6963767  36.4294767
  37.0167957  29.0383767  37.4684767  38.2047957  29.7093767  35.6734767
  38.2541549  30.3484801  34.8929578  39.3347957  28.8413767  35.9214767
  38.9593397  27.9072673  36.3392944  39.8243258  28.6416281  34.9682925
  40.3447957  29.4383767  36.8784767  40.0277957  30.2833767  37.7184767
  41.5857957  28.9843767  36.7394767  41.7927552  28.3357650  35.9934405
  42.6557957  29.3473767  37.6534767  42.2467730  29.8803312  38.5118235
  43.3717957  28.0923767  38.1534767  43.8590042  27.6085516  37.3069306
  44.1241969  28.3883596  38.8844942  42.4607957  27.1883767  38.7534767
  42.9349577  26.4111624  39.0579568  43.6537957  30.2893767  36.9844767
  43.6487957  30.4903767  35.7674767  44.5207957  30.8723767  37.8094767
  44.3933283  30.7402328  38.8026481  45.5957957  31.7533767  37.3604767
  46.1282946  32.1498908  38.2249538  46.5917957  30.9953767  36.4774767
  46.6758982  29.9601154  36.8080218  46.2612694  31.0189730  35.4390666
  47.9747957  31.5653767  36.4994767  49.1017957  30.7893767  36.3394767
  49.0940257  29.7897215  36.1955016  50.1757957  31.5563767  36.4044767
  51.1721730  31.1270177  36.2996812  49.7857957  32.8023767  36.6014767
  50.3894705  33.6070656  36.6917674  48.4137957  32.8353767  36.6654767
  47.8982913  33.7823259  36.8256133  45.0677957  32.9783767  36.6244767
  45.7517957  33.5283767  35.7554767  43.8567957  33.4153767  36.9524767
  43.2828831  32.9029884  37.6068328  43.3077957  34.6183767  36.3494767
  43.4542378  34.5911295  35.2697029  41.8117957  34.7223767  36.6364767
  41.7641580  35.0166379  37.6849233  41.3875215  35.5133233  36.0180150
  41.0147957  33.4333767  36.4324767  41.3195180  32.7046737  37.1836339
  39.5297957  33.7033767  36.5644767  39.2242188  34.4316931  35.8132931
  38.9767717  32.7758050  36.4165715  39.3185364  34.0971532  37.5586648
  41.3327957  32.8143767  35.0894767  42.3965257  32.5820084  35.0386540
  40.7550084  31.8985351  34.9649890  41.0763360  33.5158902  34.2956215
  44.0267957  35.8533767  36.8774767  44.4157957  35.9233767  38.0454767
  44.2017957  36.8363767  35.9984767  43.8655245  36.7182967  35.0534486
  44.9097957  38.0663767  36.3314767  44.9456226  38.2258997  37.4091446
  46.3517957  38.0583767  35.7864767  46.3225684  37.9093712  34.7071055
  47.0447957  39.3763767  36.0974767  47.0748200  39.5258693  37.1767596
  48.0617714  39.3540121  35.7058636  46.4950577  40.1949852  35.6329663
  47.1327957  36.8913767  36.3674767  46.6456532  35.9554165  36.0940307
  48.1486033  36.9006525  35.9723204  47.1651044  36.9798270  37.4534019
  44.1337957  39.2493767  35.7724767  43.6277957  39.2003767  34.6474767
  44.0387957  40.3093767  36.5674767  44.3525792  40.2239511  37.5236889
  43.4757957  41.5793767  36.1374767  43.5338350  41.6496279  35.0512929
  42.0117957  41.7153767  36.5584767  41.4797546  40.8510896  36.1609351
  41.9851083  41.6883135  37.6478139  41.3457957  42.9893767  36.0674767
  41.9205426  43.8473841  36.4161744  41.3479609  42.9699212  34.9776529
  39.9077957  43.1103767  36.5234767  39.5317957  42.4123767  37.4864767
  39.1537957  43.9013767  35.9194767  38.2595864  43.9100778  36.2680355
  44.2957957  42.7093767  36.7394767  44.8777957  42.5593767  37.8174767
  39.5940122  44.3673920  35.2049712  38.6056841  42.5432960  37.7045372
  40.2321219  41.8659652  37.8496501  44.3417957  43.8393767  36.0404767
  43.8702427  43.8879116  35.1486351  45.0877957  45.0043767  36.4904767
  44.9816527  45.1173149  37.5694011  46.5737957  44.8663767  36.1574767
  46.6969083  44.7615804  35.0795338  47.1071187  45.7535171  36.4990155
  46.9781477  43.9855206  36.6561664  44.5137957  46.2543767  35.8434767
  44.7257957  46.4933767  34.6514767  43.8017957  47.0503767  36.6324767
  43.6548113  46.7766326  37.5934966  43.1837957  48.2823767  36.1634767
  43.2645861  48.3444210  35.0782474  41.7037957  48.3233767  36.5464767
  41.2399363  47.6172845  35.8577333  41.6115187  47.9494443  37.5661627
  41.0037957  49.6773767  36.4354767  41.3743718  50.3321394  37.2241845
  41.2727957  50.3063767  35.0934767  40.9020562  49.6523621  34.3042265
  40.7656025  51.2693985  35.0347839  42.3456611  50.4531754  34.9689356
  39.5117957  49.5153767  36.6634767  39.3382071  49.1044195  37.6580021
  39.0236980  50.4865695  36.5819505  39.1006201  48.8386502  35.9144274
  43.9247957  49.4713767  36.7554767  44.0357957  49.5933767  37.9794767
  44.4277957  50.3433767  35.8854767  44.2840455  50.1801527  34.8991740
  45.2017957  51.5093767  36.2864767  45.3563874  51.4904523  37.3652920
  46.5667957  51.5263767  35.5974767  46.3941403  51.5033946  34.5214836
  47.0260637  52.4762933  35.8710300  47.4867957  50.3933767  35.9834767
  47.2067957  49.0903767  35.6074767  46.3036346  48.8910409  35.0307058
  48.0477957  48.0543767  35.9504767  47.8108123  47.0328934  35.6529662
  49.1907957  48.3133767  36.6694767  50.0327957  47.2813767  37.0114767
  49.7260036  46.4274009  36.6981023  49.4957957  49.6013767  37.0504767
  50.4002380  49.8086651  37.6224174  48.6477957  50.6323767  36.7034767
  48.8855240  51.6552888  36.9954291  44.4397957  52.7793767  35.9384767
  44.0507957  52.9803767  34.7834767  44.2337957  53.6293767  36.9384767
  44.4445737  53.3195975  37.8764047  43.7007957  54.9723767  36.7584767
  43.4821612  55.1371227  35.7034142  42.4147957  55.1703767  37.5604767
  42.6580058  54.6830587  38.5046532  42.3086465  56.2430143  37.7225910
  41.1007957  54.6043767  37.0184767  40.4216410  54.4217842  37.8512490
  40.4647957  55.5813767  36.0544767  41.1432160  55.7641214  35.2211406
  39.5308675  55.1646630  35.6773448  40.2613784  56.5203320  36.5693405
  41.3077957  53.2643767  36.3524767  41.7150948  52.5577284  37.0755640
  40.3536482  52.8922533  35.9793443  42.0042186  53.3748921  35.5212845
  44.7707957  55.9523767  37.2164767  44.8237957  56.3063767  38.3984767
  45.6177957  56.3903767  36.2864767  45.4554381  56.1905984  35.3098356
  46.8327957  57.1093767  36.6524767  46.8737426  57.3221386  37.7207253
  48.0867957  56.3053767  36.2624767  48.1130596  56.1918578  35.1787227
  49.3447957  57.0243767  36.7274767  49.3194692  57.1378620  37.8112574
  50.2220679  56.4428995  36.4439662  49.3952079  58.0081074  36.2607496
  48.0297957  54.9003767  36.8394767  47.1494336  54.3848580  36.4556733
  48.9262412  54.3517370  36.5505485  47.9727740  54.9555253  37.9265867
  46.8697957  58.4873767  36.0084767  47.3097957  58.6403767  34.8634767
  46.4137957  59.4983767  36.7414767  45.8281669  59.3311680  37.5471935
  46.7147957  60.8753767  36.3814767  46.7377377  60.9760614  35.2963798
  45.6517957  61.8193767  36.9364767  45.3069664  61.4512230  37.9027349
  46.0776162  62.8152977  37.0586177  44.1767957  61.9843767  35.9104767
  48.0877957  61.2473767  36.9214767  48.2207957  61.7473767  38.0414767
  49.1137957  61.0013767  36.1134767  48.9406766  60.7673708  35.1463313
  50.4837957  61.0563767  36.5704767  50.5766043  60.4081620  37.4418569
  51.1230756  60.6827310  35.7705958  50.9307957  62.4553767  36.9464767
  50.1387957  63.3473767  37.2514767  52.2507957  62.6363767  36.9154767
  52.8401220  61.8846411  36.5873191  52.8887957  63.8583767  37.3884767
  52.7304415  63.9727148  38.4608339  54.3927957  63.7973767  37.1204767
  54.5244054  63.6982813  36.0429990  54.8179726  64.7445832  37.4523270
  55.0987957  62.6523767  37.8234767  54.8610649  62.6876690  38.8866509
  54.7272536  61.7195258  37.3993956  56.6017957  62.6823767  37.6274767
  57.1237957  63.7233767  37.1794767  57.2607957  61.6633767  37.9214767
  58.2016733  61.7636170  37.7606030  52.2967957  65.1023767  36.7414767
  52.0957957  65.1453767  35.5234767  56.7156402  60.9481656  38.2572705
  58.0762163  63.6512059  37.0791803  56.4864551  64.4217114  37.0150298
  52.0107957  66.1173767  37.5534767  52.1202062  65.9829214  38.5484895
  51.5137957  67.4033767  37.0804767  51.7034587  67.4925272  36.0108135
  50.0117957  67.5443767  37.3234767  49.8486978  67.4214075  38.3941666
  49.7342069  68.5561880  37.0280408  49.1587957  66.5433767  36.5634767
  49.4399989  66.5780167  35.5109437  49.3582289  65.5477262  36.9597197
  47.6777957  66.8563767  36.7024767  47.1077235  66.1485239  36.1007617
  47.3908921  66.7562912  37.7492664  47.3607957  68.2083767  36.2584767
  48.1165507  68.7481532  35.8615194  46.1607957  68.7653767  36.3404767
  45.1277957  68.1143767  36.8494767  45.2463921  67.1696447  37.1863985
  44.2252820  68.5650803  36.8988204  45.9917957  70.0093767  35.9014767
  46.7746573  70.5149490  35.5120868  45.0813707  70.4428027  35.9595016
  52.2727957  68.5063767  37.8014767  52.7847957  68.2913767  38.9054767
  52.3507957  69.6683767  37.1834767  51.9690180  69.7731577  36.2543018
  52.9757957  70.8183767  37.8024767  52.3600143  71.7005862  37.6274943
  53.0657303  70.6455988  38.8749314  54.3597957  71.0583767  37.2224767
  54.6157957  70.7603767  36.0574767  55.2337957  71.5963767  38.0694767
  54.9489077  71.7311117  39.0290520  56.5677957  72.0313767  37.6774767
  56.6707530  71.9602685  36.5946828  56.8187957  73.4813767  38.0984767
  56.7653184  73.5865146  39.1820751  57.8074105  73.7836556  37.7529796
  55.8407957  74.4683767  37.5214767  54.4977957  74.4133767  37.8504767
  54.1505688  73.6379811  38.5333347  53.6017957  75.3233767  37.3264767
  52.5452037  75.2620174  37.5871472  54.0437957  76.3083767  36.4744767
  53.3395836  77.0305269  36.0613371  55.3787957  76.3813767  36.1434767
  55.7314926  77.1598040  35.4669001  56.2707957  75.4673767  36.6694767
  57.3285616  75.5288649  36.4136439  57.5897957  71.1083767  38.3224767
  57.5577957  70.8953767  39.5384767  58.4907957  70.5613767  37.5094767
  58.4458050  70.7709540  36.5224851  59.5187957  69.6403767  37.9734767
  59.5611314  69.6609136  39.0624603  59.2197957  68.2083767  37.5224767
  59.2243752  68.1444716  36.4343617  59.9671058  67.5269819  37.9290831
  57.8837957  67.7003767  37.9764767  56.7197957  68.1793767  37.4054767
  56.7862910  68.9304542  36.6183549  55.4917957  67.7223767  37.8164767
  54.5826719  68.1125652  37.3589317  55.4097957  66.7713767  38.8064767
  54.4361070  66.4084084  39.1355425  56.5597957  66.2773767  39.3824767
  56.4984417  65.5206510  40.1645906  57.7907957  66.7423767  38.9674767
  58.7018661  66.3536658  39.4223993  60.8667957  70.0923767  37.4384767
  61.0187957  70.3003767  36.2304767  61.8447957  70.2273767  38.3344767
  61.6571101  70.0095521  39.3026843  63.1637957  70.7383767  37.9844767
  63.2355089  70.8580686  36.9034447  63.4127957  72.0943767  38.6434767
  63.5276154  71.9245040  39.7140181  64.3499034  72.4707702  38.2332851
  62.3177957  73.1083767  38.4094767  61.1317957  73.0523767  39.1214767
  60.9983914  72.2575157  39.8553014  60.1317957  73.9753767  38.9174767
  59.2024225  73.9144785  39.4837441  60.3097957  74.9783767  37.9944767
  59.3137957  75.9033767  37.7884767  58.5427333  75.7535471  38.3403947
  61.4777957  75.0603767  37.2764767  61.6194655  75.8545643  36.5434719
  62.4757957  74.1293767  37.4874767  63.4066778  74.1910399  36.9237780
  64.2557957  69.7513767  38.3784767  65.3187957  70.1533767  38.8594767
  64.0077957  68.4613767  38.1824767  63.1091989  68.1719274  37.8235308
  64.9867957  67.4313767  38.5064767  65.1814350  67.4258674  39.5789432
  64.4907957  66.0353767  38.0894767  64.3676501  66.0131228  37.0066840
  65.4877957  64.9643767  38.5084767  65.6111211  64.9857119  39.5912672
  65.1187137  63.9848228  38.2045825  66.4485645  65.1545165  38.0300723
  63.2227957  65.7713767  38.7014767  62.9162371  64.9001795  38.4394889
  66.3207957  67.7113767  37.8224767  66.3637957  68.0483767  36.6394767
  67.4177957  67.5933767  38.4914767  67.4196362  67.3183780  39.4633160
  68.6927957  67.8583767  37.8484767  68.5244072  68.1415557  36.8094601
  69.2005146  68.6708742  38.3682556  69.3117295  66.9618685  37.8844503
  26.0231857  39.2187429  39.0710347  26.1397957  38.6943767  40.0194767
  26.1367241  37.6187127  39.8433068  25.3157514  38.9556444  40.6833962
  27.4417957  39.0703767  40.6934767  28.2207957  39.8773767  40.1704767
  27.7437957  38.5423767  41.8314767  27.5558902  39.0169978  42.7029845
  28.4157957  37.2493767  41.8794767  28.8888933  37.1148017  42.8521881
  27.4117957  36.1163767  41.6634767  26.6218077  36.2431905  42.4037040
  26.9961078  36.2431965  40.6638666  28.0067957  34.7233767  41.7914767
  28.8095016  34.6142674  41.0621899  28.4120812  34.6093657  42.7968857
  26.9857957  33.6303767  41.5544767  25.7957957  33.9013767  41.3914767
  27.4467957  32.3863767  41.5304767  26.8098222  31.6179166  41.3760901
  28.4325501  32.2136577  41.6667035  29.5177957  37.1763767  40.8304767
  29.3627957  36.5153767  39.8044767  30.6337957  37.8493767  41.0944767
  30.7215425  38.3639375  41.9591310  31.7307957  37.9133767  40.1384767
  31.5109945  37.2610036  39.2933756  31.9367957  39.3373767  39.6164767
  32.8359030  39.3728861  39.0012984  31.0755260  39.6335392  39.0176427
  32.1477957  40.5963767  40.8954767  32.9967957  37.3963767  40.8024767
  33.0777957  37.2743767  42.0254767  33.9897957  37.0903767  39.9724767
  33.8325758  37.1619387  38.9773586  35.2867957  36.6223767  40.4334767
  35.2996686  36.6171592  41.5233879  35.5867957  35.2083767  39.9344767
  34.9203122  34.4998965  40.4263657  35.4329899  35.1627261  38.8563488
  37.2847957  34.6873767  40.2674767  36.3797957  37.5673767  39.9584767
  36.3497957  38.0453767  38.8204767  37.3217957  37.8503767  40.8584767
  37.1459320  37.5866905  41.8174558  38.5397957  38.6093767  40.5584767
  38.9307123  39.0577627  41.4718405  39.6247957  37.7093767  39.9504767
  39.6480936  36.7774273  40.5153022  39.3637957  37.4063767  38.4844767
  39.3408183  38.3378755  37.9188959  40.1574724  36.7668685  38.0982051
  38.4056104  36.8967335  38.3832578  40.8977957  38.3563767  40.0644767
  41.5773723  37.7946830  39.6846396  38.2657957  39.8133767  39.6604767
  39.1037957  40.1993767  38.8414767  37.0967957  40.4313767  39.8164767
  36.3397827  39.9929357  40.3212540  36.8607957  41.7343767  39.2144767
  37.7051931  42.3896713  39.4282085  36.6987957  41.6263767  37.7044767
  36.5512176  42.6264587  37.2968544  37.6078467  41.1944846  37.2859131
  35.5907957  40.8113767  37.3674767  35.5105484  40.7594602  36.4122465
  35.6287957  42.3763767  39.8304767  34.9227957  41.7713767  40.6404767
  35.3877957  43.6233767  39.4234767  35.9882702  44.0592546  38.7382467
  34.2987957  44.4083767  39.9854767  34.1833499  44.2232901  41.0534254
  34.5557957  45.9033767  39.7504767  34.5811717  46.0949548  38.6777446
  33.4557957  46.7383767  40.3884767  33.4301075  46.5476717  41.4613571
  33.6532542  47.7958093  40.2125583  32.4947473  46.4707824  39.9492976
  35.9267957  46.3043767  40.3024767  35.8590293  46.2741882  41.3899496
  36.6435148  45.5567248  39.9627271  36.3837957  47.6733767  39.8654767
  35.6677652  48.4216602  40.2052884  37.3621724  47.8852283  40.2967507
  36.4522485  47.7041973  38.7780650  32.9817957  43.9723767  39.3624767
  32.9367957  43.5253767  38.2094767  31.8987957  44.0973767  40.1274767
  31.9982931  44.3032134  41.1112607  30.5607957  43.8913767  39.5984767
  30.5000685  44.3336848  38.6041051  30.2047957  42.4033767  39.4954767
  29.1786140  42.2982983  39.1433279  30.8809983  41.9152110  38.7936617
  30.3157957  41.4593767  41.0194767  29.5477957  44.6103767  40.4754767
  29.8217957  44.9403767  41.6314767  28.3737957  44.8593767  39.9004767
  28.2692561  44.5884120  38.9331356  27.2677957  45.5583767  40.5464767
  26.4718423  45.7255543  39.8207985  26.7017957  44.7443767  41.7154767
  26.3901398  43.7684501  41.3432711  27.4848638  44.6146207  42.4625160
  25.5927957  45.4013767  42.3034767  25.2569663  44.8731188  43.0313243
  27.6537957  46.9503767  41.0314767  26.9267957  47.5453767  41.8354767
  28.7777957  47.4873767  40.5644767  29.3920780  46.9568775  39.9633718
  29.1807957  48.8293767  40.9494767  28.9864460  48.9865894  42.0104251
  30.6747957  49.0243767  40.6924767  31.1390471  48.2313567  41.2787268
  30.8339293  48.8318666  39.6314789  31.3027957  50.3693767  41.0664767
  30.8601571  51.1414751  40.4371628  31.0707957  50.7113767  42.5224767
  31.5135879  49.9399156  43.1524621  31.5317386  51.6729614  42.7482802
  29.9997405  50.7679037  42.7167596  32.7907957  50.3393767  40.7784767
  32.9522685  50.1492695  39.7173993  33.2326926  51.2990631  41.0464886
  33.2588783  49.5481952  41.3641639  28.3597957  49.8643767  40.1854767
  27.6637957  49.5533767  39.2164767  28.4187957  51.1083767  40.6584767
  28.8976356  51.2799052  41.5310532  27.7607957  52.2293767  39.9994767
  27.2596569  51.8889663  39.0933422  26.7117957  52.8473767  40.9384767
  25.8935544  52.1307923  41.0098007  27.1775405  52.9648280  41.9169383
  26.1737957  54.1813767  40.4734767  26.7697957  55.3683767  40.8754767
  27.6370527  55.3235976  41.5342329  26.2837957  56.5903767  40.4564767
  26.7645937  57.5146226  40.7769525  25.1837957  56.6373767  39.6284767
  24.6977957  57.8543767  39.2114767  25.1993812  58.5967160  39.5563593
  24.5707957  55.4733767  39.2174767  23.7006646  55.5096928  38.5619972
  25.0657957  54.2553767  39.6414767  24.5847757  53.3307262  39.3225076
  28.7377957  53.2993767  39.5384767  28.7197957  53.6853767  38.3664767
  29.6047957  53.7883767  40.4234767  29.6213696  53.4261814  41.3661533
  30.5077957  54.8873767  40.0874767  30.5758247  54.9837257  39.0038771
  30.0047957  56.2093767  40.6644767  29.0424276  56.4205336  40.1982584
  29.8646864  56.0624866  41.7354075  30.9447957  57.3763767  40.4334767
  31.8087166  57.2629640  41.0883653  31.2733539  57.3651514  39.3942339
  30.2917957  58.7133767  40.7204767  29.1167957  58.7783767  41.0814767
  31.0517957  59.7883767  40.5574767  30.6682815  60.7057837  40.7346282
  32.0104440  59.6844816  40.2569761  31.9037957  54.5713767  40.6014767
  32.0617957  54.0343767  41.7024767  32.9087957  54.9043767  39.7984767
  32.6920915  55.2392939  38.8705925  34.3057957  54.7813767  40.1774767
  34.4084726  54.9192859  41.2538306  34.8447957  53.3993767  39.8084767
  34.0207273  52.7400488  40.0810519  34.9793569  53.3838701  38.7269256
  36.1297957  52.9183767  40.4894767  36.0199070  53.0120288  41.5698723
  36.3957957  51.4683767  40.1324767  36.5062669  51.3739994  39.0522046
  37.3113721  51.1353755  40.6212823  35.5611704  50.8522815  40.4670325
  37.3207957  53.7813767  40.1174767  37.1349021  54.8103068  40.4254472
  38.2124117  53.4074670  40.6207795  37.4719873  53.7472780  39.0385526
  35.1127957  55.8653767  39.4754767  35.0097957  56.0463767  38.2614767
  35.9147957  56.5993767  40.2414767  36.0111055  56.4579569  41.2368783
  36.6537957  57.6893767  39.6254767  37.1332227  57.3357211  38.7126916
  35.7197957  58.8523767  39.2694767  36.3501019  59.6711421  38.9224369
  35.0852313  58.5111875  38.4515415  34.8527957  59.3333767  40.4134767
  34.1162456  58.5672666  40.6556959  35.5006338  59.4988998  41.2742944
  34.1557957  60.6413767  40.1024767  34.6487957  61.3893767  39.2324767
  33.1097957  60.9203767  40.7254767  32.7364055  61.7681812  40.4745059
  37.7607957  58.1903767  40.5374767  37.5237957  58.4883767  41.7074767
  32.8549585  60.2408553  41.3537980  34.1474515  62.1989028  39.1071997
  35.4425748  61.0273823  38.8327369  38.9627957  58.2993767  39.9804767
  39.1778858  57.8042262  39.1268600  40.0087957  59.1013767  40.5944767
  40.0309257  58.9170953  41.6685577  41.3727957  58.7453767  40.0104767
  41.3993982  57.6737571  39.8129343  41.5079171  59.2900253  39.0760249
  42.5117957  59.0933767  40.9414767  42.3877957  59.9803767  41.7824767
  43.6307957  58.3963767  40.7954767  44.4230660  58.5882242  41.3918006
  43.6854548  57.6769944  40.0886513  39.6827957  60.5693767  40.3524767
  38.6657957  60.8883767  39.7294767  40.5337957  61.4653767  40.8454767
  41.3543229  61.1800738  41.3606823  40.2777957  62.8913767  40.6884767
  40.0824561  63.1163263  39.6399829  39.0607957  63.3173767  41.5154767
  38.3698999  62.4746862  41.4902805  39.3972363  63.4802166  42.5393864
  38.3597957  64.5583767  41.0124767  38.9687957  65.8023767  41.0844767
  39.9711691  65.8743048  41.5065827  38.3267957  66.9383767  40.6324767
  38.8191376  67.9092216  40.6887050  37.0557957  66.8393767  40.1074767
  36.4107957  67.9673767  39.6574767  36.9362327  68.7646701  39.7566677
  36.4277957  65.6153767  40.0314767  35.4231988  65.5357289  39.6160953
  37.0787957  64.4853767  40.4854767  36.5860775  63.5145045  40.4331703
  41.5067957  63.6773767  41.1134767  42.1507957  63.3353767  42.1084767
  41.8177957  64.7283767  40.3614767  41.3023340  64.8948253  39.5090136
  42.9167957  65.6293767  40.6924767  42.7030924  66.1312114  41.6361886
  44.2357957  64.8653767  40.8324767  45.0693251  65.5657705  40.7797839
  44.2566236  64.3481190  41.7917008  44.5417957  63.5973767  39.5904767
  43.0527957  66.7153767  39.6324767  43.0047957  66.4333767  38.4344767
  43.2207957  67.9423767  39.9934767  43.2657483  68.2082137  40.9668263
  43.3507957  68.9833767  38.9884767  43.2819091  68.5405223  37.9948796
  42.5521889  69.7141479  39.1161530  44.3159642  69.4776125  39.0992954
  31.0204288  24.1475360  46.4198091  30.8257957  24.3643767  45.3694767
  30.0446322  25.1206831  45.2927787  30.5009910  23.4547711  44.8642851
  32.0697957  24.8823767  44.6804767  33.1337957  25.0143767  45.3004767
  32.0217957  25.1893767  43.4284767  31.1813196  25.0612218  42.8832469
  33.2127957  25.6883767  42.7544767  33.9136000  26.0857113  43.4887095
  33.9007957  24.5633767  41.9814767  33.8366173  23.6347735  42.5486421
  33.4292098  24.4274076  41.0082249  35.3547957  24.8073767  41.7224767
  35.8887957  26.0723767  41.5984767  35.3576101  26.9285926  41.6680169
  37.1877957  25.9803767  41.3774767  37.7940620  26.8768286  41.2474225
  37.5167957  24.7013767  41.3574767  38.4436310  24.3282167  41.2097345
  36.3887957  23.9473767  41.5714767  36.4560673  22.8596420  41.5916978
  32.8377957  26.8293767  41.8174767  32.0267957  26.6543767  40.9094767
  33.4267957  28.0023767  42.0494767  34.0587446  28.1038675  42.8307831
  33.1397957  29.1773767  41.2354767  32.4019322  28.9291062  40.4725754
  32.5807957  30.3043767  42.1084767  31.6802573  29.8721253  42.5446973
  33.3060705  30.5042565  42.8972255  32.2257957  31.6133767  41.3984767
  31.9476993  31.3946216  40.3675017  31.0667957  32.2983767  42.1004767
  31.3443258  32.5178800  43.1314443  30.8263374  33.2275245  41.5837903
  30.1964978  31.6421833  42.0908766  33.4217957  32.5493767  41.3304767
  34.2306644  32.0669219  40.7817799  33.1354747  33.4691374  40.8204161
  33.7579895  32.7841286  42.3404095  34.3877957  29.6423767  40.4974767
  34.3487957  29.8703767  39.2844767  35.4987957  29.7843767  41.2174767
  35.4829811  29.5772949  42.2058928  36.7367957  30.2803767  40.6364767
  36.6920520  30.1791771  39.5521079  36.9667957  31.7553767  40.9814767
  36.0588734  32.1731553  41.4164909  37.7838922  31.8382972  41.6981200
  37.3927957  32.7863767  39.5614767  37.8997957  29.4333767  41.1294767
  37.8197957  28.7723767  42.1674767  38.9897957  29.4693767  40.3714767
  39.0236525  30.1091631  39.5906910  40.1397957  28.6253767  40.6174767
  39.7858679  27.6831133  41.0357755  40.6323894  28.4366108  39.6636328
  41.1367957  29.2443767  41.5724767  40.8037957  30.0823767  42.4134767
  42.3877957  28.8173767  41.4304767  42.6080146  28.1750387  40.6828105
  43.4507957  29.2023767  42.3434767  43.0311802  29.7255044  43.2027551
  44.1947957  27.9633767  42.8414767  44.6910603  27.4907550  41.9938627
  44.9417586  28.2753706  43.5714125  43.3047957  27.0393767  43.4424767
  43.7963471  26.2725629  43.7457482  44.4277957  30.1663767  41.6724767
  44.4167957  30.3673767  40.4564767  45.2837957  30.7683767  42.4964767
  45.1608572  30.6327560  43.4897504  46.3387957  31.6723767  42.0464767
  46.8644825  32.0796685  42.9101121  47.3487957  30.9353767  41.1614767
  47.4561556  29.9026502  41.4932132  47.0168693  30.9503357  40.1233529
  48.7197957  31.5363767  41.1814767  49.8627957  30.7843767  41.0184767
  49.8765297  29.7849526  40.8733471  50.9197957  31.5743767  41.0824767
  51.9252658  31.1669318  40.9770366  50.5027957  32.8113767  41.2794767
  51.0895002  33.6287260  41.3678955  49.1307957  32.8153767  41.3464767
  48.5957434  33.7512383  41.5076701  45.7827957  32.8853767  41.3114767
  46.4537957  33.4513767  40.4414767  44.5637957  33.2963767  41.6424767
  44.0035466  32.7732577  42.3001748  43.9867957  34.4873767  41.0394767
  44.1309760  34.4622274  39.9593477  42.4887957  34.5593767  41.3304767
  42.4349921  34.8530598  42.3787871  42.0465442  35.3402282  40.7117809
  41.7207957  33.2523767  41.1274767  42.0421512  32.5305245  41.8783169
  40.2307957  33.4903767  41.2614767  39.9085941  34.2118240  40.5106114
  39.6976313  32.5511070  41.1144773  40.0125007  33.8796979  42.2558995
  42.0487957  32.6413767  39.7824767  43.1173778  32.4333196  39.7282170
  41.4916254  31.7126984  39.6591116  41.7739802  33.3373812  38.9899156
  44.6797957  35.7373767  41.5674767  45.0697957  35.8153767  42.7354767
  44.8327957  36.7243767  40.6884767  44.4986734  36.5985671  39.7436839
  45.5137957  37.9693767  41.0204767  45.5472195  38.1313013  42.0978636
  46.9557957  37.9933767  40.4734767  46.9283198  37.8440006  39.3941107
  47.6197957  39.3243767  40.7834767  47.6480578  39.4742570  41.8627534
  48.6364815  39.3240645  40.3904750  47.0518717  40.1310179  40.3199101
  47.7617957  36.8423767  41.0514767  47.2943340  35.8967914  40.7767950
  48.7767794  36.8739051  40.6553534  47.7933161  36.9295326  42.1375297
  44.7117957  39.1353767  40.4634767  44.2047957  39.0763767  39.3394767
  44.5957957  40.1933767  41.2584767  44.9141988  40.1147809  42.2137471
  44.0037957  41.4503767  40.8304767  44.0581386  41.5221725  39.7442026
  42.5377957  41.5543767  41.2544767  42.0232344  40.6792590  40.8576203
  42.5132044  41.5267202  42.3438483  41.8447957  42.8143767  40.7644767
  42.4008103  43.6853241  41.1114626  41.8452157  42.7942247  39.6746635
  40.4047957  42.9033767  41.2234767  40.0457957  42.1983767  42.1874767
  39.6327957  43.6783767  40.6204767  38.7390702  43.6676758  40.9702184
  44.8007957  42.5973767  41.4314767  45.3877957  42.4593767  42.5094767
  40.0619005  44.1539809  39.9055301  39.1173448  42.3090513  42.4068006
  40.7585416  41.6679068  42.5501226  44.8217957  43.7283767  40.7334767
  44.3478455  43.7664943  39.8424001  45.5417957  44.9093767  41.1824767
  45.4352566  45.0200365  42.2615981  47.0307957  44.8033767  40.8464767
  47.1541266  44.7012229  39.7683051  47.5454976  45.7018253  41.1870240
  47.4549825  43.9314638  41.3444051  44.9407957  46.1463767  40.5364767
  45.1457957  46.3913767  39.3444767  44.2127957  46.9273767  41.3264767
  44.0726968  46.6487718  42.2871280  43.5677957  48.1453767  40.8604767
  43.6457842  48.2104416  39.7752194  42.0877957  48.1543767  41.2454767
  41.6382276  47.4388116  40.5570334  42.0052682  47.7779373  42.2650760
  41.3587957  49.4923767  41.1364767  41.7165234  50.1545193  41.9249556
  41.6117957  50.1283767  39.7934767  41.2538874  49.4669788  39.0044563
  41.0837169  51.0802023  39.7363663  42.6809923  50.2985040  39.6670816
  39.8707957  49.2993767  41.3664767  39.7071615  48.8844231  42.3610303
  39.3625604  50.2602843  41.2861362  39.4726800  48.6146404  40.6176516
  44.2837957  49.3503767  41.4504767  44.3937957  49.4743767  42.6744767
  44.7667957  50.2323767  40.5804767  44.6256672  50.0657559  39.5943634
  45.5157957  51.4153767  40.9804767  45.6730738  51.3996282  42.0589547
  46.8787957  51.4623767  40.2884767  46.7051916  51.4354500  39.2127278
  47.3178019  52.4220535  40.5612295  47.8237957  50.3493767  40.6734767
  47.5717957  49.0403767  40.2974767  46.6717602  48.8226406  39.7224754
  48.4347957  48.0223767  40.6374767  48.2197332  46.9960081  40.3401261
  49.5737957  48.3063767  41.3554767  50.4377957  47.2923767  41.6954767
  50.1486381  46.4322949  41.3820332  49.8517957  49.5993767  41.7354767
  50.7534748  49.8261951  42.3043604  48.9797957  50.6123767  41.3914767
  49.1950828  51.6398537  41.6848068  44.7257957  52.6683767  40.6344767
  44.3307957  52.8613767  39.4804767  44.5037957  53.5133767  41.6354767
  44.7230243  53.2082153  42.5729812  43.9407957  54.8453767  41.4564767
  43.7166458  55.0056018  40.4018754  42.6527957  55.0143767  42.2604767
  42.9086133  54.5306583  43.2031713  42.5241518  56.0842073  42.4248338
  41.3497957  54.4213767  41.7204767  40.6766527  54.2239368  42.5547410
  40.6907957  55.3843767  40.7584767  41.3631998  55.5819531  39.9236503
  39.7652361  54.9476605  40.3833514  40.4683021  56.3185871  41.2740811
  41.5847957  53.0853767  41.0534767  42.0081289  52.3875015  41.7758746
  40.6383665  52.6929211  40.6815202  42.2775867  53.2109765  40.2213924
  44.9907957  55.8473767  41.9124767  45.0377957  56.2023767  43.0954767
  45.8257957  56.3033767  40.9814767  45.6661345  56.1001193  40.0051089
  47.0257957  57.0483767  41.3454767  47.0642560  57.2630717  42.4134309
  48.2967957  56.2723767  40.9534767  48.3231509  56.1591180  39.8696976
  49.5397957  57.0183767  41.4154767  49.5143784  57.1316220  42.4992804
  50.4287933  56.4558768  41.1302090  49.5679566  58.0028227  40.9483849
  48.2707957  54.8663767  41.5294767  47.4014445  54.3321566  41.1461500
  49.1786417  54.3374725  41.2393463  48.2136218  54.9195729  42.6166760
  47.0317957  58.4283767  40.7014767  47.4667957  58.5913767  39.5564767
  46.5557957  59.4283767  41.4364767  45.9762572  59.2481272  42.2437837
  46.8257957  60.8113767  41.0764767  46.8445848  60.9125376  39.9913442
  45.7437957  61.7323767  41.6334767  45.4081661  61.3564799  42.5999930
  46.1486063  62.7370221  41.7556079  44.2647957  61.8663767  40.6094767
  48.1917957  61.2133767  41.6144767  48.3157957  61.7153767  42.7344767
  49.2207957  60.9893767  40.8044767  49.0512339  60.7513118  39.8376917
  50.5907957  61.0743767  41.2594767  50.6987690  60.4284034  42.1307743
  51.2364203  60.7141663  40.4585293  51.0087957  62.4823767  41.6344767
  50.1977957  63.3573767  41.9414767  52.3237957  62.6913767  41.6014767
  52.9287217  61.9533295  41.2706440  52.9357957  63.9263767  42.0744767
  52.7777298  64.0359651  43.1473722  54.4407957  63.8983767  41.8024767
  54.5721200  63.8014881  40.7247635  54.8462003  64.8547242  42.1328503
  55.1727957  62.7693767  42.5044767  54.9365906  62.7986904  43.5681725
  54.8202251  61.8292313  42.0803071  56.6737957  62.8313767  42.3054767
  57.1727957  63.8843767  41.8574767  57.3547957  61.8263767  42.5984767
  58.2930408  61.9463634  42.4357545  52.3157957  65.1583767  41.4284767
  52.1127957  65.1973767  40.2104767  56.8254720  61.0999341  42.9354878
  58.1263188  63.8326395  41.7550560  56.5203696  64.5691789  41.6952940
  52.0097957  66.1663767  42.2404767  52.1245321  66.0338566  43.2351492
  51.4847957  67.4413767  41.7694767  51.6705343  67.5352214  40.6995265
  49.9797957  67.5503767  42.0154767  49.8213009  67.4236126  43.0864153
  49.6801223  68.5561208  41.7209013  49.1467957  66.5313767  41.2564767
  49.4251480  66.5729113  40.2034356  49.3689729  65.5401284  41.6516553
  47.6597957  66.8113767  41.3984767  47.1037748  66.0920893  40.7971737
  47.3765549  66.7047518  42.4456182  47.3137957  68.1573767  40.9554767
  48.0572205  68.7137369  40.5581327  46.1017957  68.6883767  41.0394767
  45.0837957  68.0143767  41.5494767  45.2235134  67.0721973  41.8854484
  44.1717047  68.4451801  41.6004487  45.9057957  69.9283767  40.6014767
  46.6772036  70.4507365  40.2113866  44.9864042  70.3422495  40.6608670
  52.2207957  68.5603767  42.4904767  52.7387957  68.3563767  43.5924767
  52.2717957  69.7233767  41.8714767  51.8856404  69.8199156  40.9432183
  52.8737957  70.8873767  42.4894767  52.2386774  71.7559860  42.3155751
  52.9692056  70.7165320  43.5617679  54.2507957  71.1573767  41.9074767
  54.5117957  70.8653767  40.7424767  55.1137957  71.7143767  42.7534767
  54.8275411  71.8431639  43.7134619  56.4377957  72.1773767  42.3594767
  56.5404624  72.1093958  41.2764544  56.6587957  73.6323767  42.7814767
  56.6045119  73.7355700  43.8652219  57.6401544  73.9562715  42.4348828
  55.6587957  74.5983767  42.2064767  54.3177957  74.5143767  42.5374767
  53.9883665  73.7319547  43.2211375  53.4017957  75.4043767  42.0144767
  52.3472620  75.3187163  42.2766247  53.8197957  76.3993767  41.1624767
  53.0995565  77.1063833  40.7507764  55.1527957  76.5013767  40.8294767
  55.4868291  77.2876326  40.1524807  56.0657957  75.6073767  41.3534767
  57.1214526  75.6924406  41.0956928  57.4807957  71.2763767  43.0024767
  57.4557957  71.0623767  44.2184767  58.3917957  70.7493767  42.1874767
  58.3406739  70.9584919  41.2006856  59.4407957  69.8503767  42.6494767
  59.4847517  69.8714455  43.7383859  59.1717957  68.4123767  42.1984767
  59.1753817  68.3503655  41.1102484  59.9342686  67.7463265  42.6023483
  57.8477957  67.8753767  42.6544767  56.6727957  68.3303767  42.0864767
  56.7213363  69.0839099  41.3003906  55.4557957  67.8463767  42.4994767
  54.5377913  68.2173324  42.0436693  55.3957957  66.8933767  43.4884767
  54.4306651  66.5093755  43.8188794  56.5577957  66.4233767  44.0624767
  56.5143708  65.6648470  44.8440438  57.7777957  66.9153767  43.6454767
  58.6979175  66.5466408  44.0988084  60.7777957  70.3313767  42.1114767
  60.9237957  70.5433767  40.9044767  61.7537957  70.4873767  43.0064767
  61.5721660  70.2656047  43.9749431  63.0617957  71.0273767  42.6544767
  63.1290489  71.1491372  41.5733890  63.2827957  72.3873767  43.3134767
  63.4026805  72.2181845  44.3835706  64.2109342  72.7848488  42.9027761
  62.1647957  73.3783767  43.0824767  60.9817957  73.2963767  43.7954767
  60.8667242  72.4981900  44.5287953  59.9607957  74.1983767  43.5934767
  59.0339843  74.1177225  44.1614709  60.1157957  75.2043767  42.6714767
  59.0997957  76.1073767  42.4664767  58.3326112  75.9406383  43.0189492
  61.2807957  75.3123767  41.9514767  61.4046422  76.1099610  41.2189320
  62.2987957  74.4023767  42.1604767  63.2270077  74.4835536  41.5948506
  64.1747957  70.0643767  43.0454767  65.2297957  70.4883767  43.5254767
  63.9537957  68.7683767  42.8504767  63.0611353  68.4591623  42.4932050
  64.9557957  67.7603767  43.1724767  65.1516834  67.7586419  44.2447287
  64.4897957  66.3543767  42.7554767  64.3658141  66.3303042  41.6728183
  65.5097957  65.3043767  43.1724767  65.6339765  65.3275346  44.2551320
  65.1611549  64.3174500  42.8682983  66.4657344  65.5151559  42.6930459
  63.2287957  66.0623767  43.3694767  62.9408833  65.1848520  43.1074515
  66.2817957  68.0693767  42.4854767  66.3137957  68.4073767  41.3014767
  67.3827957  67.9753767  43.1514767  67.3931194  67.7002602  44.1232296
  68.6497957  68.2683767  42.5054767  68.4726158  68.5480329  41.4669680
  69.1408752  69.0916981  43.0242092  69.2883384  67.3856557  42.5396367
  24.9878285  42.3880091  29.7415525  25.1727957  41.9933767  28.7424767
  25.8608592  42.6521539  28.2126847  24.2323397  41.9347076  28.1945721
  25.7817957  40.6093767  28.8074767  26.0097957  40.0643767  29.8954767
  26.0677957  39.9893767  27.7134767  25.8661607  40.3901485  26.8085874
  26.6547957  38.6563767  27.7634767  27.1159437  38.4921422  28.7373704
  25.5807957  37.5903767  27.5454767  24.7991595  37.7673291  28.2842811
  25.1758667  37.7434560  26.5451272  26.0857957  36.1613767  27.6744767
  26.8809586  36.0009756  26.9464051  26.4813071  36.0212453  28.6804767
  24.9967957  35.1363767  27.4354767  23.8277957  35.4823767  27.2694767
  25.3767957  33.8653767  27.4134767  24.6920773  33.1393834  27.2579266
  26.3490376  33.6296792  27.5523788  27.7527957  38.5113767  26.7164767
  27.5577957  37.8613767  25.6904767  28.9097957  39.1123767  26.9834767
  29.0293039  39.6200824  27.8483768  30.0097957  39.1053767  26.0294767
  29.7494525  38.4684779  25.1840889  30.3087957  40.5133767  25.5074767
  31.2105131  40.4906825  24.8955208  29.4704652  40.8638711  24.9054339
  30.5967957  41.7563767  26.7874767  31.2387957  38.5083767  26.6964767
  31.3087957  38.3823767  27.9194767  32.2117957  38.1393767  25.8684767
  32.0615236  38.2204738  24.8730166  33.4757957  37.5893767  26.3324767
  33.4861541  37.5843627  27.4224156  33.6857957  36.1593767  25.8354767
  32.9739182  35.4954801  26.3259570  33.5323401  36.1227968  24.7569531
  35.3457957  35.5303767  26.1724767  34.6277957  38.4613767  25.8594767
  34.6307957  38.9403767  24.7214767  35.5837957  38.6843767  26.7624767
  35.3888319  38.4330058  27.7210700  36.8487957  39.3633767  26.4654767
  37.2651422  39.7852024  27.3802542  37.8747957  38.3953767  25.8604767
  37.8367897  37.4640016  26.4254512  37.5977957  38.1093767  24.3934767
  37.6360940  39.0402813  23.8277476  38.3494115  37.4199474  24.0089510
  36.6089682  37.6625285  24.2902904  39.1867957  38.9603767  25.9764767
  39.8299543  38.3561575  25.5984998  36.6547957  40.5823767  25.5654767
  37.5167957  40.9133767  24.7494767  35.5277957  41.2743767  25.7194767
  34.7435421  40.8858310  26.2235381  35.3767957  42.5893767  25.1164767
  36.2607750  43.1895533  25.3320409  35.2117957  42.4913767  23.6064767
  35.1299646  43.4988031  23.1984387  36.0923405  42.0018384  23.1904320
  34.0547957  41.7493767  23.2664767  33.9740110  41.7025498  22.3110287
  34.1867957  43.3083767  25.7294767  33.4417957  42.7503767  26.5384767
  34.0277957  44.5693767  25.3214767  34.6579856  44.9666642  24.6394777
  32.9887957  45.4223767  25.8804767  32.8571935  45.2453787  26.9479278
  33.3427957  46.8983767  25.6464767  33.3837486  47.0881315  24.5739021
  32.2967957  47.8023767  26.2814767  32.2555869  47.6135133  27.3541990
  32.5624425  48.8449419  26.1065759  31.3218725  47.5972771  25.8392572
  34.7347957  47.2093767  26.2014767  34.6631389  47.1833670  27.2888081
  35.4028054  46.4174202  25.8628509  35.2797957  48.5473767  25.7654767
  34.6125136  49.3399194  26.1041661  36.2689003  48.6960337  26.1986885
  35.3521779  48.5739732  24.6782080  31.6487957  45.0713767  25.2554767
  31.5777957  44.6283767  24.1024767  30.5737957  45.2653767  26.0174767
  30.6840086  45.4634049  27.0017213  29.2267957  45.1453767  25.4854767
  29.1967129  45.5906518  24.4910300  28.7767957  43.6833767  25.3814767
  27.7473292  43.6439946  25.0254613  29.4230263  43.1526266  24.6823413
  28.8227957  42.7343767  26.9074767  28.2597957  45.9293767  26.3594767
  28.5527957  46.2403767  27.5164767  27.1067957  46.2523767  25.7824767
  26.9877360  45.9895522  24.8145680  26.0457957  47.0213767  26.4264767
  25.2640683  47.2396225  25.6988984  25.4257957  46.2453767  27.5934767
  25.0530146  45.2915099  27.2202856  26.1968253  46.0655352  28.3426566
  24.3597957  46.9723767  28.1784767  23.9886608  46.4668587  28.9053262
  26.5197957  48.3853767  26.9104767  25.8297957  49.0253767  27.7144767
  27.6767957  48.8493767  26.4464767  28.2572753  48.2806368  25.8467454
  28.1637957  50.1623767  26.8324767  27.9777889  50.3316099  27.8930713
  29.6677957  50.2613767  26.5784767  30.0796765  49.4402129  27.1651141
  29.8162241  50.0595712  25.5176546  30.3797957  51.5643767  26.9544767
  29.9884252  52.3634858  26.3249097  30.1667957  51.9193767  28.4104767
  30.5583585  51.1208933  29.0407161  30.6873606  52.8495920  28.6381003
  29.1010712  52.0436372  28.6025468  31.8627957  51.4383767  26.6694767
  32.0137263  51.2382098  25.6086975  32.3652246  52.3675280  26.9384459
  32.2776597  50.6186325  27.2559973  27.4117957  51.2483767  26.0664767
  26.6997957  50.9823767  25.0964767  27.5497957  52.4863767  26.5384767
  28.0376952  52.6268714  27.4115831  26.9657957  53.6463767  25.8794767
  26.4458716  53.3381026  24.9724237  25.9577957  54.3303767  26.8144767
  25.0952190  53.6677491  26.8850837  26.4290823  54.4180071  27.7934098
  25.5067957  55.6963767  26.3484767  26.1767957  56.8433767  26.7514767
  27.0374695  56.7433880  27.4127953  25.7717957  58.0933767  26.3304767
  26.3109846  58.9849637  26.6505545  24.6787957  58.2103767  25.5004767
  24.2727957  59.4563767  25.0824767  24.8204257  60.1649461  25.4283531
  23.9937957  57.0883767  25.0894767  23.1287952  57.1806563  24.4326975
  24.4087957  55.8403767  25.5144767  23.8702630  54.9485560  25.1939483
  28.0117957  54.6513767  25.4194767  28.0207957  55.0373767  24.2474767
  28.9067957  55.0843767  26.3064767  28.8989305  54.7214786  27.2489959
  29.8777957  56.1223767  25.9724767  29.9536950  56.2138345  24.8889759
  29.4597957  57.4743767  26.5484767  28.5134415  57.7462945  26.0809582
  29.3092162  57.3369615  27.6192442  30.4727957  58.5793767  26.3184767
  31.3259518  58.4103396  26.9754790  30.8026252  58.5475664  25.2800632
  29.9067957  59.9543767  26.6044767  28.7377957  60.0953767  26.9624767
  30.7337957  60.9793767  26.4424767  30.4089640  61.9192222  26.6193275
  31.6842857  60.8149842  26.1430686  31.2507957  55.7183767  26.4904767
  31.3707957  55.1733767  27.5914767  32.2757957  55.9863767  25.6894767
  32.0830570  56.3346798  24.7612332  33.6617957  55.7733767  26.0714767
  33.7707928  55.9044725  27.1480605  34.1117957  54.3593767  25.7034767
  33.2469672  53.7526914  25.9719984  34.2493924  54.3366092  24.6224361
  35.3607957  53.7983767  26.3884767  35.2536755  53.8986414  27.4685569
  35.5347957  52.3333767  26.0314767  35.6424505  52.2323509  24.9515216
  36.4256425  51.9424121  26.5230451  34.6614216  51.7718415  26.3631336
  36.6057957  54.5823767  26.0184767  36.4855804  55.6216731  26.3242720
  37.4701610  54.1528334  26.5249019  36.7574226  54.5367120  24.9400413
  34.5377957  56.8033767  25.3714767  34.4497957  56.9893767  24.1564767
  35.3827957  57.4853767  26.1384767  35.4668309  57.3390698  27.1342838
  36.1927957  58.5253767  25.5234767  36.6503918  58.1415079  24.6116929
  35.3357957  59.7453767  25.1654767  36.0177453  60.5223777  24.8200589
  34.6826135  59.4454065  24.3460435  34.4987957  60.2803767  26.3074767
  33.7138338  59.5632052  26.5474781  35.1534727  60.4039415  27.1701638
  33.8877957  61.6313767  25.9944767  34.4297957  62.3453767  25.1254767
  32.8607957  61.9773767  26.6154767  32.5432247  62.8473692  26.3636022
  37.3277957  58.9543767  26.4384767  37.1067957  59.2673767  27.6084767
  32.5615911  61.3159072  27.2435003  33.9820497  63.1855302  24.9988335
  35.1993846  61.9326740  24.7275739  38.5347957  58.9853767  25.8844767
  38.7200183  58.4756343  25.0324470  39.6287957  59.7193767  26.5004767
  39.6362510  59.5351172  27.5747635  40.9687957  59.2763767  25.9204767
  40.9266343  58.2052248  25.7231058  41.1405791  59.8109581  24.9862320
  42.1257957  59.5503767  26.8534767  42.0567957  60.4443767  27.6944767
  43.1977957  58.7823767  26.7094767  43.9997450  58.9226884  27.3072139
  43.2070975  58.0608685  26.0027659  39.3977957  61.2053767  26.2584767
  38.4047957  61.5883767  25.6324767  40.3037957  62.0453767  26.7524767
  41.1038462  61.7085551  27.2687807  40.1397957  63.4833767  26.5944767
  39.9615996  63.7194953  25.5453851  38.9507957  63.9873767  27.4184767
  38.2067877  63.1912190  27.3923221  39.2954941  64.1283239  28.4428873
  38.3327957  65.2703767  26.9144767  39.0197957  66.4733767  26.9874767
  40.0236839  66.4811197  27.4120330  38.4527957  67.6483767  26.5334767
  39.0062321  68.5857310  26.5898401  37.1797957  67.6303767  26.0054767
  36.6097957  68.7973767  25.5544767  37.1850547  69.5592728  25.6554280
  36.4747957  66.4493767  25.9284767  35.4678892  66.4344103  25.5113249
  37.0507957  65.2803767  26.3834767  36.4972408  64.3429694  26.3292133
  41.4157957  64.1903767  27.0224767  42.0347957  63.8073767  28.0184767
  41.7957957  65.2183767  26.2704767  41.2948050  65.4160437  25.4160556
  42.9497957  66.0473767  26.6034767  42.7664380  66.5628875  27.5462003
  44.2167957  65.2003767  26.7474767  45.0936269  65.8459986  26.6980942
  44.2011634  64.6824178  27.7064211  44.4427957  63.9153767  25.5064767
  43.1577957  67.1223767  25.5444767  43.0937957  66.8453767  24.3464767
  43.4027957  68.3363767  25.9064767  43.4611471  68.5989040  26.8800135
  43.6027957  69.3663767  24.9024767  43.5092924  68.9287267  23.9085853
  42.8521884  70.1468257  25.0273307  44.5972359  69.7977755  25.0168611
  28.4050265  25.4177446  32.3134370  28.2267957  25.6453767  31.2624767
  27.4960723  26.4502892  31.1833725  27.8451128  24.7579409  30.7576255
  29.5027957  26.0813767  30.5754767  30.5717957  26.1453767  31.1974767
  29.4767957  26.3903767  29.3234767  28.6309030  26.3159777  28.7766408
  30.6987957  26.8113767  28.6514767  31.4217676  27.1638806  29.3871070
  31.3157957  25.6443767  27.8804767  31.1916612  24.7224794  28.4486274
  30.8386568  25.5372446  26.9063303  32.7827957  25.7953767  27.6244767
  33.3967957  27.0223767  27.5014767  32.9214216  27.9108942  27.5697104
  34.6867957  26.8473767  27.2834767  35.3491040  27.7034253  27.1545288
  34.9337957  25.5503767  27.2644767  35.8351430  25.1186197  27.1186725
  33.7597957  24.8703767  27.4764767  33.7573827  23.7805848  27.4976659
  30.4007957  27.9743767  27.7124767  29.5817957  27.8513767  26.8034767
  31.0627957  29.1073767  27.9464767  31.6973319  29.1689128  28.7298518
  30.8537957  30.2973767  27.1314767  30.1036238  30.0965365  26.3666208
  30.3657957  31.4573767  28.0024767  29.4383160  31.0833697  28.4360657
  31.1001550  31.6104535  28.7932889  30.0967957  32.7873767  27.2914767
  29.8077111  32.5867663  26.2598342  28.9827957  33.5453767  27.9904767
  29.2713633  33.7467702  29.0221105  28.8037969  34.4879670  27.4731918
  28.0721524  32.9464675  27.9787775  31.3507957  33.6443767  27.2264767
  32.1281533  33.1108726  26.6794960  31.1255160  34.5807453  26.7160218
  31.6990934  33.8568400  28.2372423  32.1307957  30.6813767  26.3964767
  32.1087957  30.9103767  25.1834767  33.2467957  30.7523767  27.1184767
  33.2155072  30.5469496  28.1068694  34.5147957  31.1673767  26.5404767
  34.4659447  31.0693387  25.4559947  34.8387957  32.6253767  26.8864767
  33.9585246  33.1009545  27.3189668  35.6575162  32.6554203  27.6054303
  35.3337957  33.6263767  25.4674767  35.6197957  30.2473767  27.0364767
  35.4957957  29.5933767  28.0744767  36.7117957  30.2133767  26.2804767
  36.7879959  30.8490641  25.4993273  37.8047957  29.2983767  26.5294767
  37.3899022  28.3808720  26.9467869  38.2859783  29.0783690  25.5765028
  38.8377957  29.8513767  27.4864767  38.5567957  30.7093767  28.3274767
  40.0587957  29.3453767  27.3484767  40.2386277  28.6890320  26.6021716
  41.1427957  29.6623767  28.2634767  40.7564624  30.2120866  29.1217685
  41.8037957  28.3773767  28.7634767  42.2702131  27.8733922  27.9169818
  42.5678366  28.6404984  29.4949878  40.8547957  27.5133767  29.3624767
  41.2949841  26.7164012  29.6668845  42.1797957  30.5603767  27.5944767
  42.1847957  30.7613767  26.3784767  43.0707957  31.1063767  28.4204767
  42.9375951  30.9787468  29.4134861  44.1827957  31.9413767  27.9724767
  44.7316791  32.3145429  28.8370999  45.1457957  31.1403767  27.0894767
  45.1862887  30.1028320  27.4210796  44.8176447  31.1767244  26.0506814
  46.5517957  31.6523767  27.1124767  47.6447957  30.8283767  26.9524767
  47.5940587  29.8300710  26.8078694  48.7507957  31.5483767  27.0184767
  49.7281097  31.0770595  26.9144752  48.4137957  32.8103767  27.2154767
  49.0514855  33.5883213  27.3063271  47.0447957  32.9023767  27.2784767
  46.5704037  33.8706757  27.4380086  43.7077957  33.1873767  27.2354767
  44.4157957  33.7083767  26.3674767  42.5167957  33.6753767  27.5634767
  41.9219709  33.1883676  28.2185378  42.0187957  34.9013767  26.9594767
  42.1638833  34.8676375  25.8797034  40.5287957  35.0683767  27.2464767
  40.4926405  35.3651492  28.2946743  40.1392710  35.8762467  26.6270280
  39.6777957  33.8143767  27.0424767  39.9503474  33.0739467  27.7945271
  38.2057957  34.1473767  27.1724767  37.9323738  34.8874568  26.4203991
  37.6139601  33.2440721  27.0245844  38.0103333  34.5505615  28.1661250
  39.9697957  33.1823767  25.6984767  41.0227525  32.9052238  25.6478037
  39.3538034  32.2918309  25.5736457  39.7434094  33.8943054  24.9047477
  42.7897957  36.1043767  27.4884767  43.1807957  36.1563767  28.6574767
  43.0077957  37.0783767  26.6104767  42.6687718  36.9734383  25.6648817
  43.7657957  38.2773767  26.9434767  43.8072642  38.4369443  28.0209357
  45.2077957  38.2083767  26.3994767  45.1733987  38.0602803  25.3201327
  45.9547957  39.4953767  26.7104767  45.9900096  39.6439263  27.7897329
  46.9703193  39.4301181  26.3198957  45.4404153  40.3361763  26.2451054
  45.9377957  37.0093767  26.9804767  45.4116553  36.0950520  26.7060889
  46.9534726  36.9757313  26.5863090  45.9727539  37.0958763  28.0664770
  43.0417957  39.4923767  26.3844767  42.5347957  39.4653767  25.2584767
  42.9917957  40.5553767  27.1794767  43.3013303  40.4565909  28.1357869
  42.4827957  41.8483767  26.7494767  42.5444918  41.9162306  25.6633420
  41.0257957  42.0463767  27.1694767  40.4573635  41.2060621  26.7709101
  40.9968577  42.0199111  28.2587711  40.4157957  43.3483767  26.6784767
  41.0256401  44.1816605  27.0275165  40.4178940  43.3287479  25.5886559
  38.9837957  43.5293767  27.1334767  38.5777957  42.8483767  28.0964767
  38.2647957  44.3523767  26.5284767  37.3712539  44.3990522  26.8757282
  43.3497957  42.9423767  27.3514767  43.9247957  42.7673767  28.4304767
  38.7255364  44.7994807  25.8148277  37.6577743  43.0182203  28.3134714
  39.2541686  42.2732501  28.4607106  43.4447957  44.0693767  26.6534767
  42.9755375  44.1387591  25.7618029  44.2397957  45.2013767  27.1044767
  44.1385807  45.3193174  28.1833394  45.7187957  45.0003767  26.7714767
  45.8373098  44.8898528  25.6935904  46.2892138  45.8643367  27.1124997
  46.0855181  44.1034743  27.2706561  43.7197957  46.4743767  26.4564767
  43.9427957  46.7053767  25.2644767  43.0417957  47.3003767  27.2454767
  42.8823140  47.0329097  28.2062714  42.4777957  48.5573767  26.7764767
  42.5620660  48.6162857  25.6913374  40.9997957  48.6613767  27.1584767
  40.5066746  47.9759898  26.4691469  40.8908306  48.2914196  28.1779660
  40.3587957  50.0433767  27.0474767  40.7567336  50.6812699  27.8366780
  40.6547957  50.6613767  25.7054767  40.2567265  50.0242383  24.9157335
  40.1891126  51.6451714  25.6472693  41.7329735  50.7624034  25.5812726
  38.8607957  49.9463767  27.2744767  38.6688212  49.5432321  28.2688206
  38.4154540  50.9378889  27.1927728  38.4210875  49.2882680  26.5250446
  43.2677957  49.7143767  27.3684767  43.3827957  49.8313767  28.5924767
  43.8077957  50.5633767  26.4994767  43.6580285  50.4058401  25.5131445
  44.6307957  51.6953767  26.9004767  44.7836592  51.6700945  27.9794080
  45.9957957  51.6543767  26.2124767  45.8249664  51.6394333  25.1360506
  46.4938679  52.5839771  26.4879168  46.8657957  50.4843767  26.5994767
  46.5317957  49.1943767  26.2224767  45.6217079  49.0344798  25.6443136
  47.3267957  48.1233767  26.5654767  47.0461603  47.1128616  26.2684837
  48.4797957  48.3333767  27.2864767  49.2767957  47.2653767  27.6284767
  48.9340113  46.4256412  27.3139250  48.8387957  49.6063767  27.6664767
  49.7513878  49.7749153  28.2382030  48.0357957  50.6723767  27.3194767
  48.3169089  51.6842056  27.6115002  43.9237957  52.9973767  26.5524767
  43.5437957  53.2143767  25.3974767  43.7537957  53.8543767  27.5524767
  43.9498347  53.5352861  28.4904795  43.2787957  55.2203767  27.3724767
  43.0682349  55.3954022  26.3174273  42.0017957  55.4713767  28.1734767
  42.2237644  54.9724666  29.1168313  41.9421729  56.5473395  28.3373339
  40.6637957  54.9633767  27.6304767  39.9773415  54.8104781  28.4632453
  40.0707957  55.9663767  26.6664767  40.7565228  56.1194589  25.8331442
  39.1197741  55.5902685  26.2893808  39.9080652  56.9133663  27.1810930
  40.8147957  53.6153767  26.9644767  41.1909712  52.8921522  27.6880358
  39.8462168  53.2839287  26.5901796  41.5162744  53.6963228  26.1341308
  44.3887957  56.1533767  27.8314767  44.4557957  56.5043767  29.0134767
  45.2537957  56.5543767  26.9014767  45.0840959  56.3613022  25.9247354
  46.4977957  57.2213767  27.2684767  46.5475893  57.4337456  28.3364277
  47.7177957  56.3643767  26.8794767  47.7396306  56.2491778  25.7958017
  49.0047957  57.0293767  27.3444767  48.9838959  57.1445022  28.4281789
  49.8566550  56.4109422  27.0616782  49.0971815  58.0097864  26.8771832
  47.5997957  54.9633767  27.4554767  46.6987462  54.4862218  27.0700743
  48.4723539  54.3769525  27.1676427  47.5435099  55.0204479  28.5425258
  46.5937957  58.5963767  26.6244767  47.0407957  58.7313767  25.4804767
  46.1817957  59.6253767  27.3574767  45.5894863  59.4825868  28.1630076
  46.5407957  60.9883767  26.9984767  46.5690555  61.0878732  25.9133956
  45.5187957  61.9773767  27.5524767  45.1584045  61.6250818  28.5189682
  45.9866457  62.9543518  27.6738691  44.0527957  62.2053767  26.5254767
  47.9287957  61.3023767  27.5394767  48.0817957  61.7953767  28.6594767
  48.9427957  61.0123767  26.7314767  48.7605415  60.7853466  25.7643469
  50.3137957  61.0093767  27.1894767  50.3783479  60.3580406  28.0610807
  50.9371046  60.6086232  26.3901133  50.8197957  62.3883767  27.5654767
  50.0667957  63.3133767  27.8704767  52.1457957  62.5123767  27.5354767
  52.7022168  61.7363172  27.2064988  52.8357957  63.7053767  28.0094767
  52.6823143  63.8250797  29.0819570  54.3357957  63.5813767  27.7414767
  54.4636165  63.4769487  26.6640465  54.8008402  64.5095131  28.0737364
  54.9917957  62.4073767  28.4444767  54.7550541  62.4513315  29.5075488
  54.5810143  61.4918455  28.0188474  56.4947957  62.3733767  28.2494767
  57.0607957  63.3913767  27.8024767  57.1097957  61.3273767  28.5444767
  58.0541842  61.3874814  28.3841741  52.2967957  64.9743767  27.3614767
  52.0997957  65.0263767  26.1434767  56.5345442  60.6361479  28.8802852
  58.0093497  63.2788360  27.7027130  56.4538253  64.1162721  27.6380665
  52.0547957  66.0003767  28.1734767  52.1574672  65.8604436  29.1684524
  51.6137957  67.3063767  27.7014767  51.8088041  67.3884780  26.6322105
  50.1177957  67.5113767  27.9424767  49.9488330  67.3960174  29.0131042
  49.8846452  68.5341887  27.6465096  49.2227957  66.5483767  27.1824767
  49.5059101  66.5712181  26.1301339  49.3798116  65.5451704  27.5787408
  47.7567957  66.9233767  27.3204767  47.1574061  66.2407630  26.7180902
  47.4647871  66.8356341  28.3669621  47.4987957  68.2873767  26.8764767
  48.2770969  68.7943003  26.4797714  46.3227957  68.8953767  26.9574767
  45.2627957  68.2883767  27.4664767  45.3414505  67.3396374  27.8038300
  44.3800002  68.7766305  27.5152610  46.2077957  70.1453767  26.5184767
  47.0120405  70.6169268  26.1299785  45.3167387  70.6174529  26.5755750
  52.4177957  68.3763767  28.4224767  52.9187957  68.1393767  29.5264767
  52.5457957  69.5333767  27.8044767  52.1695500  69.6537453  26.8749339
  53.2187957  70.6563767  28.4234767  52.6409835  71.5637625  28.2477403
  53.3006165  70.4803782  29.4960574  54.6117957  70.8373767  27.8444767
  54.8557957  70.5283767  26.6804767  55.5067957  71.3373767  28.6924767
  55.2269555  71.4845209  29.6517146  56.8587957  71.7153767  28.3014767
  56.9595701  71.6397771  27.2187818  57.1707957  73.1533767  28.7224767
  57.1216736  73.2610100  29.8060363  58.1715093  73.4129512  28.3770879
  56.2367957  74.1803767  28.1454767  54.8917957  74.1833767  28.4734767
  54.5108387  73.4240280  29.1563832  54.0367957  75.1303767  27.9484767
  52.9783711  75.1127628  28.2083379  54.5197957  76.0963767  27.0974767
  53.8474262  76.8482439  26.6843000  55.8567957  76.1123767  26.7674767
  56.2419471  76.8755170  26.0911813  56.7097957  75.1613767  27.2934767
  57.7693033  75.1786823  27.0380473  57.8407957  70.7493767  28.9464767
  57.7987957  70.5383767  30.1624767  58.7177957  70.1643767  28.1334767
  58.6830214  70.3758430  27.1464752  59.7047957  69.2003767  28.5984767
  59.7467621  69.2193713  29.6875025  59.3457957  67.7823767  28.1474767
  59.3486451  67.7192140  27.0593124  60.0626812  67.0690988  28.5541827
  57.9897957  67.3323767  28.5994767  56.8467957  67.8603767  28.0294767
  56.9452611  68.6089891  27.2433572  55.6007957  67.4553767  28.4394767
  54.7094285  67.8836665  27.9810739  55.4777957  66.5093767  29.4284767
  54.4890729  66.1885605  29.7565075  56.6047957  65.9663767  30.0054767
  56.5105763  65.2128635  30.7874235  57.8547957  66.3783767  29.5914767
  58.7480808  65.9512138  30.0471888  61.0717957  69.5943767  28.0634767
  61.2337957  69.7963767  26.8564767  62.0537957  69.6873767  28.9604767
  61.8565246  69.4769182  29.9284079  63.3937957  70.1423767  28.6114767
  63.4707916  70.2595009  27.5305268  63.7007957  71.4863767  29.2714767
  63.8068130  71.3112409  30.3420780  64.6535994  71.8228811  28.8627836
  62.6497957  72.5463767  29.0364767  61.4607957  72.5403767  29.7474767
  61.2920191  71.7509606  30.4798948  60.5017957  73.5063767  29.5434767
  59.5715007  73.4866092  30.1111582  60.7227957  74.5003767  28.6214767
  59.7667957  75.4663767  28.4134767  58.9890865  75.3491274  28.9639499
  61.8937957  74.5323767  27.9034767  62.0698687  75.3193820  27.1701818
  62.8507957  73.5593767  28.1154767  63.7839607  73.5809487  27.5525932
  64.4427957  69.1103767  29.0054767  65.5217957  69.4663767  29.4874767
  64.1397957  67.8313767  28.8104767  63.2293674  67.5801937  28.4525289
  65.0737957  66.7613767  29.1344767  65.2689504  66.7474037  30.2067727
  64.5197957  65.3873767  28.7174767  64.3955835  65.3711645  27.6346985
  65.4697957  64.2743767  29.1354767  65.5941480  64.2896633  30.2182521
  65.0588846  63.3117981  28.8310206  66.4377509  64.4233624  28.6569723
  63.2407957  65.1773767  29.3284767  62.8979770  64.3197872  29.0665303
  66.4187957  66.9843767  28.4514767  67.3747957  67.4423767  29.0764767
  66.5557957  66.6893767  27.2034767  65.8471179  66.9207658  26.5220561
  67.7537957  66.0063767  26.7464767  68.4164280  65.8280661  27.5933678
  67.4791550  65.0536164  26.2937950  68.2659304  66.6242702  26.0088957
  25.5038876  41.8557256  34.4661236  25.6967957  41.4663767  33.4664767
  26.3699276  42.1406619  32.9370135  24.7574914  41.3877600  32.9190959
  26.3357957  40.0963767  33.5294767  26.5767957  39.5543767  34.6164767
  26.6337957  39.4833767  32.4344767  26.4213322  39.8800611  31.5302643
  27.2497957  38.1623767  32.4824767  27.7167079  38.0075866  33.4551700
  26.1977957  37.0733767  32.2664767  25.4139812  37.2333435  33.0068447
  25.7876174  37.2175070  31.2669367  26.7337957  35.6563767  32.3944767
  27.5308423  35.5147136  31.6645800  27.1342061  35.5228985  33.3994430
  25.6667957  34.6083767  32.1554767  24.4897957  34.9293767  31.9924767
  26.0747957  33.3453767  32.1324767  25.4060771  32.6046220  31.9769157
  27.0520628  33.1309921  32.2706421  28.3487957  38.0423767  31.4344767
  28.1657957  37.3883767  30.4084767  29.4917957  38.6683767  31.6984767
  29.6003734  39.1798712  32.5625853  30.5907957  38.6853767  30.7434767
  30.3438692  38.0429174  29.8982711  30.8577957  40.0993767  30.2214767
  31.7581054  40.0964361  29.6070396  30.0104335  40.4319306  29.6219058
  31.1207957  41.3473767  31.5014767  31.8337957  38.1143767  31.4084767
  31.9077957  37.9893767  32.6314767  32.8127957  37.7673767  30.5784767
  32.6599834  37.8471368  29.5832953  34.0887957  37.2433767  31.0404767
  34.1003126  37.2373317  32.1303988  34.3287957  35.8183767  30.5414767
  33.6332038  35.1385677  31.0335243  34.1729138  35.7792885  29.4633891
  36.0027957  35.2253767  30.8754767  35.2207957  38.1413767  30.5654767
  35.2117957  38.6203767  29.4274767  36.1737957  38.3843767  31.4664767
  35.9861205  38.1285131  32.4253360  37.4227957  39.0903767  31.1674767
  37.8314185  39.5212512  32.0815193  38.4687957  38.1453767  30.5604767
  38.4522675  37.2133390  31.1253951  38.1957957  37.8533767  29.0934767
  38.2126254  38.7849505  28.5278031  38.9618535  37.1807563  28.7076834
  37.2169209  37.3847993  28.9917914  39.7677957  38.7383767  30.6744767
  40.4232786  38.1483958  30.2951812  37.2007957  40.3053767  30.2684767
  38.0547957  40.6553767  29.4514767  36.0597957  40.9723767  30.4254767
  35.2849680  40.5674628  30.9312296  35.8797957  42.2843767  29.8224767
  36.7514061  42.9027868  30.0368678  35.7137957  42.1843767  28.3124767
  35.6080877  43.1900647  27.9056393  36.6042071  41.7153646  27.8937940
  34.5727957  41.4163767  27.9744767  34.4907380  41.3686202  27.0191832
  34.6757957  42.9773767  30.4384767  33.9437957  42.4033767  31.2474767
  34.4887957  44.2343767  30.0304767  35.1077443  44.6452203  29.3462184
  33.4327957  45.0643767  30.5924767  33.3072420  44.8840122  31.6600928
  33.7537957  46.5483767  30.3584767  33.7886863  46.7391338  29.2858655
  32.6897957  47.4293767  30.9954767  32.6546303  47.2395052  32.0682362
  32.9325438  48.4774627  30.8202916  31.7187256  47.2033348  30.5549917
  35.1397957  46.8893767  30.9104767  35.0706100  46.8612362  31.9979151
  35.8236220  46.1117603  30.5701917  35.6557957  48.2383767  30.4744767
  34.9726847  49.0165943  30.8148244  36.6423358  48.4074290  30.9060542
  35.7256944  48.2671191  29.3871001  32.0987957  44.6853767  29.9694767
  32.0357957  44.2413767  28.8154767  31.0217957  44.8563767  30.7334767
  31.1294686  45.0567336  31.7175311  29.6757957  44.7073767  30.2034767
  29.6340678  45.1523792  29.2093285  29.2577957  43.2353767  30.0994767
  28.2285974  43.1735085  29.7458916  29.9139054  42.7194849  29.3984235
  29.3277957  42.2873767  31.6244767  28.6947957  45.4693767  31.0794767
  28.9817957  45.7863767  32.2364767  27.5327957  45.7673767  30.5044767
  27.4170673  45.5018372  29.5369050  26.4577957  46.5133767  31.1504767
  25.6700431  46.7154908  30.4247393  25.8567957  45.7233767  32.3184767
  25.5041433  44.7617227  31.9457073  26.6326896  45.5601476  33.0664373
  24.7757957  46.4273767  32.9054767  24.4167983  45.9138616  33.6328164
  26.9017957  47.8873767  31.6344767  26.2007957  48.5123767  32.4394767
  28.0477957  48.3763767  31.1694767  28.6394557  47.8194989  30.5695393
  28.5077957  49.6993767  31.5544767  28.3196444  49.8647711  32.6152986
  30.0087957  49.8303767  31.2984767  30.4379957  49.0182981  31.8853455
  30.1608662  49.6311255  30.2376876  30.6937957  51.1483767  31.6734767
  30.2849823  51.9391691  31.0444936  30.4747957  51.4983767  33.1294767
  30.8837887  50.7082138  33.7591322  30.9757750  52.4393500  33.3568309
  29.4068677  51.6000047  33.3226138  32.1777957  51.0543767  31.3854767
  32.3307610  50.8578491  30.3243085  32.6607317  51.9940071  31.6537466
  32.6113864  50.2435293  31.9708182  27.7317957  50.7683767  30.7904767
  27.0237957  50.4873767  29.8204767  27.8427957  52.0093767  31.2624767
  28.3274349  52.1594826  32.1357993  27.2337957  53.1573767  30.6044767
  26.7194576  52.8393030  29.6976225  26.2117957  53.8183767  31.5424767
  25.3637541  53.1372823  31.6134353  26.6819684  53.9155431  32.5210453
  25.7307957  55.1753767  31.0774767  26.3767957  56.3353767  31.4794767
  27.2411932  56.2536210  32.1384399  25.9437957  57.5763767  31.0604767
  26.4639370  58.4791540  31.3807081  24.8477957  57.6703767  30.2324767
  24.4137957  58.9073767  29.8154767  24.9462013  59.6277245  30.1607927
  24.1857957  56.5343767  29.8214767  23.3182105  56.6084478  29.1658016
  24.6277957  55.2953767  30.2454767  24.1074560  54.3924568  29.9259735
  28.2557957  54.1843767  30.1434767  28.2547957  54.5713767  28.9714767
  29.1427957  54.6353767  31.0294767  29.1450989  54.2716131  31.9716922
  30.0917957  55.6953767  30.6934767  30.1636366  55.7894051  29.6099193
  29.6447957  57.0373767  31.2714767  28.6920604  57.2892080  30.8056702
  29.4989510  56.8961026  32.3423974  30.6337957  58.1643767  31.0404767
  31.4920418  58.0146844  31.6955392  30.9618564  58.1396875  30.0013094
  30.0377957  59.5263767  31.3274767  28.8667957  59.6423767  31.6874767
  30.8427957  60.5693767  31.1654767  30.4979120  61.5019493  31.3428607
  31.7964657  60.4255793  30.8655813  31.4727957  55.3203767  31.2094767
  31.6067957  54.7773767  32.3094767  32.4907957  55.6113767  30.4064767
  32.2892335  55.9562680  29.4788335  33.8817957  55.4283767  30.7864767
  33.9895013  55.5615984  31.8629295  34.3617957  54.0243767  30.4174767
  33.5102773  53.4001988  30.6884335  34.4970644  54.0039917  29.3360948
  35.6237957  53.4893767  31.0994767  35.5169482  53.5869775  32.1798279
  35.8277957  52.0283767  30.7414767  35.9351939  51.9300262  29.6612491
  36.7277364  51.6560526  31.2309482  34.9671471  51.4484822  31.0748035
  36.8507957  54.3003767  30.7284767  36.7088044  55.3364130  31.0359938
  37.7251071  53.8888092  31.2327516  37.0014339  54.2595102  29.6497103
  34.7337957  56.4773767  30.0844767  34.6397957  56.6613767  28.8704767
  35.5657957  57.1763767  30.8514767  35.6556326  57.0309615  31.8469078
  36.3517957  58.2333767  30.2354767  36.8157015  57.8596990  29.3226484
  35.4677957  59.4353767  29.8794767  36.1323099  60.2267771  29.5327700
  34.8194662  59.1216361  29.0613473  34.6217957  59.9523767  31.0234767
  33.8531797  59.2180264  31.2644327  35.2747213  60.0902993  31.8853147
  33.9807957  61.2893767  30.7114767  34.5057957  62.0153767  29.8424767
  32.9477957  61.6123767  31.3344767  32.6104513  62.4751040  31.0833205
  37.4787957  58.6873767  31.1484767  37.2527957  58.9943767  32.3184767
  32.6646442  60.9443927  31.9630477  34.0393322  62.8453958  29.7165678
  35.2840078  61.6200551  29.4436987  38.6847957  58.7453767  30.5924767
  38.8790935  58.2412123  29.7391503  39.7627957  59.5013767  31.2064767
  39.7763353  59.3160787  32.2805254  41.1107957  59.0883767  30.6234767
  41.0920538  58.0166676  30.4255184  41.2696372  59.6271505  29.6893503
  42.2627957  59.3873767  31.5554767  42.1767957  60.2783767  32.3964767
  43.3517957  58.6423767  31.4094767  44.1513292  58.7997427  32.0062027
  43.3757894  57.9216227  30.7023425  39.4997957  60.9823767  30.9654767
  38.4977957  61.3443767  30.3414767  40.3877957  61.8413767  31.4584767
  41.1957148  61.5214254  31.9732556  40.1927957  63.2763767  31.3014767
  40.0073391  63.5092381  30.2529155  38.9947957  63.7543767  32.1284767
  38.2682312  62.9422026  32.1044684  39.3388438  63.9032634  33.1519823
  38.3477957  65.0233767  31.6254767  39.0087957  66.2403767  31.6974767
  40.0132871  66.2692591  32.1196880  38.4157957  67.4033767  31.2454767
  38.9484774  68.3527158  31.3012199  37.1427957  67.3573767  30.7194767
  36.5467957  68.5123767  30.2694767  37.1055974  69.2865035  30.3698167
  36.4627957  66.1623767  30.6434767  35.4553746  66.1262323  30.2288723
  37.0647957  65.0053767  31.0964767  36.5315657  64.0562686  31.0420743
  41.4537957  64.0103767  31.7274767  42.0827957  63.6393767  32.7224767
  41.8107957  65.0463767  30.9754767  41.3043359  65.2339571  30.1220065
  42.9457957  65.8993767  31.3074767  42.7525055  66.4095101  32.2511409
  44.2317957  65.0803767  31.4484767  45.0940614  65.7451276  31.3964831
  44.2301254  64.5626561  32.4076757  44.4837957  63.8013767  30.2064767
  43.1287957  66.9793767  30.2474767  42.8697957  68.1563767  30.4984767
  43.5597957  66.6563767  29.0754767  42.9399429  66.5960327  28.2803413
  44.9687957  66.3683767  28.8734767  45.5012273  66.4756551  29.8185210
  45.0827185  65.3483088  28.5066204  45.3814840  67.0646973  28.1434589
  29.2920074  24.9618174  37.0232799  29.1077957  25.1853767  35.9724767
  28.3593334  25.9738861  35.8940199  28.7454118  24.2896655  35.4680183
  30.3727957  25.6493767  35.2844767  31.4407957  25.7373767  35.9044767
  30.3377957  25.9593767  34.0324767  29.4927115  25.8673262  33.4870790
  31.5497957  26.4083767  33.3584767  32.2667290  26.7757242  34.0927531
  32.1897957  25.2543767  32.5854767  32.0859416  24.3297964  33.1533366
  31.7136184  25.1376743  31.6119595  33.6527957  25.4363767  32.3274767
  34.2397957  26.6773767  32.2044767  33.7454025  27.5553566  32.2739487
  35.5337957  26.5303767  31.9844767  36.1773388  27.4006596  31.8557952
  35.8087957  25.2383767  31.9634767  36.7187430  24.8259421  31.8151744
  34.6497957  24.5333767  32.1774767  34.6706671  23.4437791  32.1985178
  31.2247957  27.5643767  32.4214767  30.4067957  27.4233767  31.5124767
  31.8627957  28.7113767  32.6544767  32.4986128  28.7863799  33.4356365
  31.6257957  29.8963767  31.8404767  30.8782365  29.6789516  31.0776001
  31.1147957  31.0463767  32.7124767  30.1961908  30.6529774  33.1477941
  31.8472370  31.2149154  33.5019225  30.8167957  32.3693767  32.0024767
  30.5304421  32.1628121  30.9712476  29.6877957  33.1033767  32.7034767
  29.9736157  33.3107131  33.7346980  29.4878803  34.0420156  32.1866676
  28.7901424  32.4851447  32.6930826  32.0517957  33.2533767  31.9354767
  32.8396899  32.7368243  31.3873017  31.8054521  34.1845974  31.4253355
  32.3969825  33.4734248  32.9456866  32.8937957  30.3083767  31.1034767
  32.8647957  30.5383767  29.8894767  34.0087957  30.4033767  31.8234767
  33.9842391  30.1969466  32.8118506  35.2667957  30.8463767  31.2424767
  35.2175410  30.7478969  30.1580530  35.5597957  32.3103767  31.5884767
  34.6699655  32.7669270  32.0219088  36.3783505  32.3577127  32.3066880
  36.0307957  33.3223767  30.1694767  36.3927957  29.9493767  31.7364767
  36.2847957  29.2923767  32.7744767  37.4837957  29.9393767  30.9784767
  37.5448118  30.5766267  30.1972669  38.5967957  29.0483767  31.2254767
  38.2026260  28.1217992  31.6428297  39.0814035  28.8394436  30.2717464
  39.6187957  29.6233767  32.1814767  39.3207957  30.4743767  33.0224767
  40.8507957  29.1433767  32.0404767  41.0435630  28.4912904  31.2936678
  41.9287957  29.4833767  32.9534767  41.5318018  30.0245073  33.8123555
  42.6187957  28.2133767  33.4524767  43.0953171  27.7199719  32.6053768
  43.3776422  28.4932930  34.1831606  41.6897957  27.3283767  34.0524767
  42.1479043  26.5413255  34.3562640  42.9457957  30.4043767  32.2834767
  42.9437957  30.6063767  31.0674767  43.8257957  30.9693767  33.1074767
  43.6963718  30.8390352  34.1006332  44.9187957  31.8273767  32.6584767
  45.4609847  32.2112405  33.5226405  45.8967957  31.0483767  31.7734767
  45.9600648  30.0115923  32.1038922  45.5660339  31.0787756  30.7353185
  47.2917957  31.5903767  31.7944767  48.4027957  30.7903767  31.6324767
  48.3741906  29.7912718  31.4873186  49.4917957  31.5343767  31.6974767
  50.4786776  31.0836390  31.5926022  49.1287957  32.7883767  31.8944767
  49.7500388  33.5797217  31.9835277  47.7577957  32.8513767  31.9604767
  47.2633697  33.8093187  32.1216949  44.4157957  33.0633767  31.9234767
  45.1097957  33.6003767  31.0544767  43.2147957  33.5263767  32.2534767
  42.6317529  33.0262403  32.9092389  42.6897957  34.7403767  31.6514767
  42.8342943  34.7098978  30.5715275  41.1957957  34.8763767  31.9404767
  41.1532394  35.1729857  32.9884802  40.7882345  35.6749380  31.3205624
  40.3727957  33.6033767  31.7374767  40.6628200  32.8688120  32.4887433
  38.8937957  33.9043767  31.8704767  38.6029089  34.6385727  31.1191846
  38.3214240  32.9884804  31.7234213  38.6915590  34.3029234  32.8646403
  40.6757957  32.9793767  30.3924767  41.7346448  32.7262249  30.3390695
  40.0798676  32.0751878  30.2683260  40.4314244  33.6866366  29.5999081
  43.4347957  35.9593767  32.1784767  43.8267957  36.0203767  33.3474767
  43.6297957  36.9393767  31.3014767  43.2900213  36.8282405  30.3568596
  44.3637957  38.1543767  31.6334767  44.4043679  38.3131970  32.7110802
  45.8047957  38.1163767  31.0864767  45.7713405  37.9687193  30.0070430
  46.5247957  39.4193767  31.3974767  46.5590577  39.5675049  32.4768215
  47.5406704  39.3764557  31.0047211  45.9914250  40.2493780  30.9341030
  46.5617957  36.9333767  31.6654767  46.0548200  36.0079660  31.3921770
  47.5770168  36.9216720  31.2688801  46.5974776  37.0204652  32.7514064
  43.6117957  39.3533767  31.0764767  43.1037957  39.3163767  29.9514767
  43.5407957  40.4153767  31.8714767  43.8545269  40.3229870  32.8270584
  43.0027957  41.6963767  31.4434767  43.0615010  41.7661516  30.3572979
  41.5427957  41.8623767  31.8654767  40.9922024  41.0100133  31.4674532
  41.5159105  41.8350332  32.9548020  40.9037957  43.1513767  31.3754767
  41.4961589  43.9976773  31.7233014  40.9041195  43.1317715  30.2856535
  39.4687957  43.3013767  31.8334767  39.0797957  42.6113767  32.7974767
  38.7307957  44.1083767  31.2304767  37.8372419  44.1354446  31.5797733
  43.8477957  42.8083767  32.0444767  44.4267957  42.6453767  33.1224767
  39.1800260  44.5655845  30.5158914  38.1567738  42.7610812  33.0165476
  39.7693607  42.0510867  33.1600956  43.9167957  43.9373767  31.3464767
  43.4450998  43.9963485  30.4553400  44.6867957  45.0863767  31.7964767
  44.5842604  45.2007388  32.8756000  46.1697957  44.9183767  31.4614767
  46.2894637  44.8118094  30.3833195  46.7214408  45.7942743  31.8029314
  46.5567645  44.0291600  31.9591193  44.1387957  46.3483767  31.1504767
  44.3547957  46.5843767  29.9574767  43.4447957  47.1593767  31.9404767
  43.2931204  46.8880280  32.9014470  42.8527957  48.4033767  31.4734767
  42.9343027  48.4642871  30.3882368  41.3737957  48.4763767  31.8574767
  40.8937568  47.7806401  31.1692817  41.2755142  48.1039728  32.8771610
  40.7027957  49.8443767  31.7484767  41.0886753  50.4907948  32.5367289
  40.9827957  50.4683767  30.4054767  40.5967677  49.8227102  29.6166827
  40.4961030  51.4419962  30.3480650  42.0583104  50.5923615  30.2790004
  39.2077957  49.7133767  31.9774767  39.0263943  49.3050481  32.9716903
  38.7400697  50.6946609  31.8973832  38.7819822  49.0462285  31.2280136
  43.6187957  49.5773767  32.0644767  43.7337957  49.6963767  33.2884767
  44.1387957  50.4383767  31.1944767  43.9905709  50.2781798  30.2083400
  44.9377957  51.5873767  31.5944767  45.0929266  51.5648410  32.6731452
  46.3017957  51.5763767  30.9044767  46.1278007  51.5580604  29.8286099
  46.7811291  52.5161802  31.1785369  47.1977957  50.4243767  31.2884767
  46.8907957  49.1283767  30.9124767  45.9828727  48.9489452  30.3366473
  47.7097957  48.0743767  31.2534767  47.4509154  47.0580251  30.9566395
  48.8587957  48.3093767  31.9724767  49.6787957  47.2583767  32.3124767
  49.3533514  46.4117379  31.9980115  49.1917957  49.5893767  32.3524767
  50.1018207  49.7774206  32.9222087  48.3647957  50.6383767  32.0074767
  48.6240999  51.6558297  32.3001382  44.2027957  52.8733767  31.2484767
  43.8157957  53.0833767  30.0944767  44.0147957  53.7273767  32.2494767
  44.2196638  53.4127904  33.1871141  43.5097957  55.0813767  32.0704767
  43.2928665  55.2510806  31.0158481  42.2297957  55.3053767  32.8744767
  42.4640115  54.8113433  33.8174365  42.1468484  56.3797561  33.0385763
  40.9027957  54.7683767  32.3334767  40.2212455  54.5998028  33.1672470
  40.2857957  55.7593767  31.3704767  40.9666140  55.9281185  30.5361438
  39.3426936  55.3626183  30.9946550  40.1030412  56.7021978  31.8860246
  41.0817957  53.4243767  31.6664767  41.4748525  52.7090980  32.3889601
  40.1199665  53.0722009  31.2937060  41.7798746  53.5209527  30.8349372
  44.6007957  56.0383767  32.5274767  44.6627957  56.3913767  33.7104767
  45.4557957  56.4583767  31.5964767  45.2887169  56.2616295  30.6200165
  46.6857957  57.1523767  31.9614767  46.7322672  57.3634776  33.0298287
  47.9227957  56.3223767  31.5694767  47.9454980  56.2090988  30.4856170
  49.1957957  57.0143767  32.0334767  49.1740298  57.1276013  33.1173621
  50.0603846  56.4148492  31.7486026  49.2662993  57.9971651  31.5673675
  47.8367957  54.9183767  32.1464767  46.9453265  54.4216133  31.7635787
  48.7211455  54.3510056  31.8564507  47.7821681  54.9745114  33.2336591
  46.7507957  58.5293767  31.3184767  47.1927957  58.6743767  30.1734767
  46.3177957  59.5493767  32.0524767  45.7303566  59.3932964  32.8591078
  46.6457957  60.9193767  31.6934767  46.6695325  61.0192976  30.6083263
  45.6047957  61.8863767  32.2494767  45.2545409  61.5270466  33.2171041
  46.0520555  62.8731617  32.3691186  44.1317957  62.0823767  31.2254767
  48.0277957  61.2633767  32.2314767  48.1727957  61.7593767  33.3524767
  49.0467957  60.9953767  31.4224767  48.8678679  60.7648136  30.4555616
  50.4187957  61.0213767  31.8784767  50.4986348  60.3718077  32.7501332
  51.0493375  60.6338726  31.0782536  50.8957957  62.4113767  32.2534767
  50.1227957  63.3193767  32.5604767  52.2187957  62.5643767  32.2214767
  52.7918569  61.8006000  31.8923181  52.8827957  63.7723767  32.6944767
  52.7282343  63.8891449  33.7671254  54.3847957  63.6803767  32.4244767
  54.5129021  63.5795703  31.3467355  54.8299629  64.6182544  32.7566088
  55.0677957  62.5203767  33.1254767  54.8315963  62.5597202  34.1888500
  54.6760757  61.5961072  32.7007645  56.5707957  62.5183767  32.9284767
  57.1137957  63.5493767  32.4804767  57.2077957  61.4853767  33.2214767
  58.1505156  61.5654150  33.0600695  52.3157957  65.0293767  32.0484767
  52.1157957  65.0773767  30.8314767  56.6475655  60.7818885  33.5572228
  58.0644393  63.4578301  32.3791413  56.4906958  64.2607188  32.3172100
  52.0527957  66.0493767  32.8614767  52.1603803  65.9116685  33.8562437
  51.5827957  67.3453767  32.3904767  51.7737943  67.4315085  31.3208039
  50.0837957  67.5183767  32.6344767  49.9190734  67.3989579  33.7053198
  49.8279416  68.5359754  32.3392961  49.2087957  66.5363767  31.8754767
  49.4899904  66.5656010  30.8227772  49.3881575  65.5367514  32.2713058
  47.7347957  66.8793767  32.0154767  47.1497248  66.1847437  31.4127530
  47.4458128  66.7839327  33.0621280  47.4467957  68.2383767  31.5734767
  48.2133838  68.7627428  31.1766364  46.2577957  68.8203767  31.6564767
  45.2127957  68.1903767  32.1664767  45.3128066  67.2434608  32.5032973
  44.3195465  68.6590713  32.2167851  46.1147957  70.0673767  31.2184767
  46.9079386  70.5566797  30.8291093  45.2136684  70.5197400  31.2770921
  52.3647957  68.4323767  33.1104767  52.8737957  68.2063767  34.2134767
  52.4667957  69.5923767  32.4924767  52.0866166  69.7053582  31.5636073
  53.1167957  70.7293767  33.1114767  52.5200260  71.6246327  32.9368861
  53.2038626  70.5548157  34.1838793  54.5047957  70.9393767  32.5304767
  54.7537957  70.6373767  31.3654767  55.3897957  71.4593767  33.3764767
  55.1080008  71.6012016  34.3359436  56.7327957  71.8663767  32.9834767
  56.8333702  71.7933218  31.9005885  57.0147957  73.3103767  33.4044767
  56.9653728  73.4160776  34.4882128  58.0090183  73.5918003  33.0574577
  56.0567957  74.3183767  32.8294767  54.7137957  74.2913767  33.1604767
  54.3512648  73.5237407  33.8441479  53.8367957  75.2193767  32.6374767
  52.7793878  75.1788104  32.8989026  54.2977957  76.1963767  31.7854767
  53.6087054  76.9336040  31.3734689  55.6337957  76.2413767  31.4534767
  56.0015264  77.0131490  30.7772801  56.5077957  75.3083767  31.9774767
  57.5661804  75.3481017  31.7199040  57.7367957  70.9213767  33.6264767
  57.7007957  70.7093767  34.8424767  58.6247957  70.3563767  32.8114767
  58.5835594  70.5673396  31.8246163  59.6337957  69.4133767  33.2744767
  59.6776685  69.4327099  34.3634215  59.3037957  67.9883767  32.8234767
  59.3061278  67.9246793  31.7353424  60.0369908  67.2913524  33.2292871
  57.9577957  67.5083767  33.2784767  56.8037957  68.0123767  32.7094767
  56.8849488  68.7629834  31.9232810  55.5667957  67.5803767  33.1214767
  54.6656619  67.9895692  32.6647273  55.4657957  66.6313767  34.1104767
  54.4850139  66.2889044  34.4404461  56.6067957  66.1123767  34.6854767
  56.5307431  65.3570593  35.4676607  57.8467957  66.5513767  34.2684767
  58.7502175  66.1425940  34.7210534  60.9897957  69.8373767  32.7374767
  61.1457957  70.0433767  31.5304767  61.9717957  69.9513767  33.6324767
  61.7807982  69.7362304  34.6006355  63.3007957  70.4353767  33.2814767
  63.3733691  70.5545519  32.2004450  63.5797957  71.7853767  33.9414767
  63.6912248  71.6112160  35.0116874  64.5244279  72.1430659  33.5318080
  62.5057957  72.8223767  33.7094767  61.3187957  72.7903767  34.4224767
  61.1687504  71.9978684  35.1556319  60.3377957  73.7353767  34.2194767
  59.4080567  73.6938726  34.7868960  60.5357957  74.7343767  33.2974767
  59.5597957  75.6793767  33.0924767  58.7860318  75.5453713  33.6446829
  61.7047957  74.7923767  32.5784767  61.8626008  75.5843469  31.8463693
  62.6837957  73.8393767  32.7874767  63.6145773  73.8810698  32.2217848
  64.3727957  69.4253767  33.6734767  65.4437957  69.8043767  34.1534767
  64.0967957  68.1403767  33.4774767  63.1922051  67.8695009  33.1190896
  65.0547957  67.0903767  33.8004767  65.2509233  67.0801958  34.8726379
  64.5297957  65.7053767  33.3834767  64.4044814  65.6869881  32.3008603
  65.5037957  64.6133767  33.7994767  65.6292701  64.6308429  34.8820897
  65.1133454  63.6422921  33.4951046  66.4676534  64.7834471  33.3197320
  63.2567957  65.4673767  33.9964767  62.9320925  64.6028000  33.7344171
  66.3927957  67.3433767  33.1144767  66.4397957  67.6793767  31.9314767
  67.4877957  67.2033767  33.7814767  67.4855913  66.9285688  34.7533693
  68.7667957  67.4423767  33.1364767  68.6025468  67.7287234  32.0976656
  69.2916745  68.2445199  33.6552918  69.3675073  66.5335274  33.1716694
  86.4895960  96.2366600  61.1636010  86.4090010  95.3221210  60.8927720
  86.0760380  96.7333670  60.4575720  84.6214000  98.0145620  63.0445280
  83.8456100  97.5346060  63.3343850  85.2726930  97.3351270  62.8701440
  78.6379830  98.3265430  63.9221040  77.8064710  98.0714140  64.3217550
  79.2460810  98.3976200  64.6578960  77.0471780  93.2867320  57.7063430
  76.1588480  93.6283290  57.6043310  77.3312970  93.0867640  56.8144260
  75.0104790  95.8872970  63.5903130  75.5820900  95.1195170  63.5906770
  75.0106330  96.1861730  62.6809740  76.2529660  91.2957330  65.3772060
  76.0732500  90.3983080  65.6574820  75.8509740  91.8429200  66.0519010
  85.0928160  93.4973190  63.2784370  85.4692980  92.6245070  63.1658040
  84.9947670  93.8331890  62.3874810  79.2233170  91.8698820  58.7401810
  79.3299920  92.7702550  59.0470570  78.3125530  91.8216790  58.4496460
  88.8752280  90.9923630  60.2112710  89.6961900  90.5020200  60.2538190
  88.9086360  91.5821290  60.9644550  76.8716330  93.7917830  63.9854400
  77.5526440  94.0556200  64.6041800  76.5564380  92.9518700  64.3192410
  81.0640900  94.8385190  63.0726990  81.5719120  95.3366160  63.7132010
  81.5954140  94.0620390  62.8966350  79.3477000  89.4783750  67.3390410
  79.3495440  89.9956140  66.5336310  78.5181310  89.0013930  67.3160340
  89.1113760  92.9324010  62.9840250  88.4069330  93.2208900  63.5643360
  89.4725920  93.7424120  62.6239810  79.0292330  91.1893710  65.3460860
  79.3709140  92.0335760  65.0514730  78.0908140  91.3377450  65.4626200
  82.7120220  88.6775980  61.6705450  83.0195200  88.1222870  60.9540950
  81.7820920  88.8120440  61.4878440  85.1000980  96.7424810  58.4065570
  84.1730260  96.6762190  58.6354040  85.2525800  97.6804940  58.2920810
  85.0870060  93.0141810  55.4032730  84.1473730  93.1755770  55.4885190
  85.4053320  93.7327490  54.8568720  89.1298270  98.3045110  58.9100820
  88.5110690  97.9664660  58.2627120  89.1122720  97.6604870  59.6180010
  88.5724830  94.4829650  66.3266630  88.1596010  95.3083360  66.5806620
  87.8400780  93.8974690  66.1342990  80.7057620  97.2689550  61.1885300
  80.3014620  96.5566800  60.6931200  80.7920740  96.9242790  62.0773340
  79.4186240  94.0432760  64.9684340  79.9700830  94.1528100  64.1937590
  79.9329750  94.4170360  65.6839570  87.3062970  97.5431920  55.9173570
  87.7456250  96.7054350  55.7711390  88.0191390  98.1761320  56.0037710
  77.4062250  96.1634530  58.6891950  77.2859850  96.8896620  58.0773220
  77.0963140  95.3937440  58.2119860  79.8725910  89.5069600  62.0715620
  79.4294060  90.2879140  61.7400140  80.4310900  89.8299490  62.7786560
  82.9884730  89.1280300  56.9521450  82.3638910  89.1240170  57.6774760
  82.9014850  88.2611260  56.5557420  81.9101810  90.0516930  63.9305220
  82.2074140  90.9579760  63.8497240  82.4587370  89.5635710  63.3164790
  79.6640130  94.6303170  59.7996870  79.4381050  94.4140340  60.7043490
  78.8832660  95.0631630  59.4542840  86.8937890  94.6366540  58.3987520
  86.2946780  95.3602340  58.2151140  87.4417500  94.5743320  57.6163970
  85.5002760  93.2730080  60.4290800  85.8932330  93.5902280  59.6159490
  85.8619610  92.3941960  60.5435320  74.5366930  89.8630880  62.6521000
  74.2479980  90.4333740  63.3645980  75.2812690  89.3835330  63.0152230
  74.7237160  93.8051000  53.8623720  74.6411830  94.7481760  54.0038710
  74.3720220  93.6625910  52.9836070  86.0857900  95.8635830  64.5241580
  85.3539020  96.3722640  64.8731680  85.6882240  95.0465810  64.2230360
  82.5235290  92.5390030  62.9294070  82.5271350  92.0979980  62.0798610
  83.4186410  92.8607360  63.0365890  78.3737670  92.4216520  61.8888280
  78.0337720  92.8991750  62.6455330  77.6114990  91.9681640  61.5289380
  82.5855440  93.5402110  55.9200830  82.7068260  93.4988590  56.8686650
  82.2003950  94.4026260  55.7647560  86.5483810  91.3169510  63.9364520
  86.5656550  91.7678160  64.7806370  86.2999390  90.4175150  64.1497960
  81.5976940  95.8503250  55.3184130  81.0293840  95.4021500  54.6920040
  82.3065940  96.2096030  54.7849280  82.8243260  96.5991810  64.6759480
  83.1913390  96.1250380  65.4220820  82.6348320  97.4733380  65.0167820
  75.6883750  91.3435500  60.8052950  75.4030670  90.9791170  61.6431570
  75.6262610  90.6115960  60.1916090  80.6142630  95.6400450  66.9943690
  80.3099700  96.5192430  67.2194050  81.5689090  95.7000240  67.0301130
  85.3622340  90.2364760  57.5266320  84.5486950  89.7377930  57.4511630
  85.1684290  91.0763010  57.1102670  88.0770730  94.6084410  55.8228480
  88.9650350  94.9201640  55.6479820  88.0475820  93.7356660  55.4309060
  75.1814410  96.4794450  54.7649650  76.0509260  96.7619250  55.0485570
  74.6904730  97.2930320  54.6498460  82.3449220  97.8667660  58.8857930
  82.8012000  98.6772910  59.1118120  81.9937430  97.5490800  59.7176420
  78.2461000  88.2105310  59.3580450  78.1175630  88.2023210  60.3065370
  77.4223020  88.5488400  59.0071460  86.7393710  92.4618740  66.5688600
  87.1074530  91.6413950  66.8968170  85.8791910  92.5220630  66.9844250
  90.1055740  91.4175680  57.3776160  89.4768900  91.5221350  56.6634390
  89.6107660  91.6372460  58.1670040  82.0739770  93.6961630  58.7934040
  81.3655920  94.1647970  59.2347650  82.3584250  93.0383640  59.4279230
  83.6995700  95.1158330  66.7926570  84.1980950  95.5904150  67.4578420
  83.8418650  94.1921850  66.9996600  86.1055200  90.4212290  60.2329830
  85.9822980  90.4398420  59.2839340  87.0539760  90.4691230  60.3528230
  80.2774790  92.0046710  56.1684750  81.1265320  92.4416860  56.1024940
  79.9106060  92.3166970  56.9956810  89.1984570  96.5759470  61.0816320
  88.2574710  96.5909700  61.2564010  89.5128640  95.7895430  61.5276620
  79.1766210  98.2579070  54.6420280  79.9429480  98.1460430  55.2045710
  79.2540900  97.5617040  53.9897050  77.8712970  95.6904140  55.3253170
  77.9516560  94.7431650  55.4370570  78.7632720  96.0211020  55.4313830
  81.2085240  98.2544200  56.6162920  81.6301660  98.0884070  57.4594310
  81.3336080  97.4444430  56.1218060  83.7212880  97.2781810  53.8640020
  84.2418540  96.5630830  53.4981170  84.3681280  97.9167680  54.1640530
  82.6246400  89.7576360  66.5358580  82.1763700  89.7800620  65.6904130
  81.9911600  89.3595380  67.1328880  87.7057750  96.9384060  67.1171370
  87.1792970  97.4626680  66.5136510  88.0489090  97.5711450  67.7481100
  80.1044140  94.3277430  53.5621080  79.9033200  93.4644790  53.9234420
  79.9336190  94.2410790  52.6242680  87.5832450  89.1385660  56.0907960
  87.8634740  88.2953560  56.4467380  86.8098180  89.3708770  56.6046710
  78.9026940  91.4278050  53.5498960  79.2052840  91.4345480  52.6418110
  79.6421530  91.0775910  54.0466620  82.1211870  90.3712670  54.5355160
  81.7733870  89.6936660  53.9557610  82.3224640  89.9102180  55.3498550
  75.4617510  96.9000320  60.9319530  74.8066350  96.6311960  60.2879230
  76.2995460  96.7904800  60.4821510  88.4107950  91.6941610  55.1538020
  88.8292830  91.5072590  54.3134680  88.1044010  90.8420660  55.4640950
  76.4993440  97.2852890  65.4722870  76.8666480  97.1980290  66.3518890
  75.9304260  96.5219440  65.3729730  74.6755590  94.1099250  56.8744860
  73.7719670  94.3729450  56.6996520  75.1596210  94.3810420  56.0944820
  77.2182800  93.1664790  54.7839240  77.9274500  92.7448010  54.2986520
  76.5022740  93.2340020  54.1522590  76.8656960  89.2204120  53.8241890
  77.5885090  89.7613060  54.1423110  77.1381480  88.9467540  52.9483430
  76.5549150  88.4710310  63.7264510  77.2025340  87.9207690  63.2859670
  76.9750990  88.7253460  64.5480320  76.3081150  88.6265980  66.4689830
  75.9595970  89.0829800  67.2348010  75.9768850  87.7323110  66.5512260
  87.1988570  88.0380060  65.9570830  86.3248410  88.3715170  65.7543760
  87.0899320  87.5653240  66.7822700  88.1060550  90.2450930  67.3412550
  87.7773910  89.4302690  66.9614280  89.0542850  90.2020740  67.2178240
  84.9463390  88.9549900  64.8963740  84.1635180  89.4295400  65.1760500
  84.6526320  88.0504730  64.7876920  89.4984460  89.6573000  62.9412830
  89.9392550  89.6018100  62.0934430  89.2292050  90.5731010  63.0123010
  76.2903800  89.2597380  57.4177460  77.0483160  89.3726260  56.8441490
  75.8280970  90.0966580  57.3720890  82.8317610  91.3736650  60.4079770
  82.0192120  90.9993540  60.0675650  83.3359250  90.6181730  60.7100960
  87.3342590  88.0379100  61.6462840  87.9371960  88.6099310  62.1211360
  86.5935580  88.6018540  61.4236740  90.4777190  88.4400660  56.9203120
  90.6727820  89.3384110  57.1870550  89.6907060  88.2087740  57.4136070
  78.6628950  89.7861430  55.9579430  79.1921710  88.9991230  55.8287380
  79.2957270  90.4652620  56.1914960  80.8566790  89.5236570  59.0124820
  80.2269530  88.8223880  59.1794950  80.3171930  90.2840700  58.7957980
  86.4895960  96.2366600  42.3892520  86.4090010  95.3221210  42.1184230
  86.0760380  96.7333670  41.6832230  84.6214000  98.0145620  44.2701790
  83.8456100  97.5346060  44.5600360  85.2726930  97.3351270  44.0957950
  78.6379830  98.3265430  45.1477550  77.8064710  98.0714140  45.5474060
  79.2460810  98.3976200  45.8835470  77.0471780  93.2867320  38.9319940
  76.1588480  93.6283290  38.8299820  77.3312970  93.0867640  38.0400770
  75.0104790  95.8872970  44.8159640  75.5820900  95.1195170  44.8163280
  75.0106330  96.1861730  43.9066250  76.2529660  91.2957330  46.6028570
  76.0732500  90.3983080  46.8831330  75.8509740  91.8429200  47.2775520
  85.0928160  93.4973190  44.5040880  85.4692980  92.6245070  44.3914550
  84.9947670  93.8331890  43.6131320  79.2233170  91.8698820  39.9658320
  79.3299920  92.7702550  40.2727080  78.3125530  91.8216790  39.6752970
  88.8752280  90.9923630  41.4369220  89.6961900  90.5020200  41.4794700
  88.9086360  91.5821290  42.1901060  76.8716330  93.7917830  45.2110910
  77.5526440  94.0556200  45.8298310  76.5564380  92.9518700  45.5448920
  81.0640900  94.8385190  44.2983500  81.5719120  95.3366160  44.9388520
  81.5954140  94.0620390  44.1222860  79.3477000  89.4783750  48.5646920
  79.3495440  89.9956140  47.7592820  78.5181310  89.0013930  48.5416850
  89.1113760  92.9324010  44.2096760  88.4069330  93.2208900  44.7899870
  89.4725920  93.7424120  43.8496320  79.0292330  91.1893710  46.5717370
  79.3709140  92.0335760  46.2771240  78.0908140  91.3377450  46.6882710
  82.7120220  88.6775980  42.8961960  83.0195200  88.1222870  42.1797460
  81.7820920  88.8120440  42.7134950  85.1000980  96.7424810  39.6322080
  84.1730260  96.6762190  39.8610550  85.2525800  97.6804940  39.5177320
  85.0870060  93.0141810  36.6289240  84.1473730  93.1755770  36.7141700
  85.4053320  93.7327490  36.0825230  89.1298270  98.3045110  40.1357330
  88.5110690  97.9664660  39.4883630  89.1122720  97.6604870  40.8436520
  88.5724830  94.4829650  47.5523140  88.1596010  95.3083360  47.8063130
  87.8400780  93.8974690  47.3599500  80.7057620  97.2689550  42.4141810
  80.3014620  96.5566800  41.9187710  80.7920740  96.9242790  43.3029850
  79.4186240  94.0432760  46.1940850  79.9700830  94.1528100  45.4194100
  79.9329750  94.4170360  46.9096080  87.3062970  97.5431920  37.1430080
  87.7456250  96.7054350  36.9967900  88.0191390  98.1761320  37.2294220
  79.0928970  97.5652120  49.8046190  78.9536740  98.4374920  50.1733590
  78.2110330  97.2224930  49.6594130  77.4062250  96.1634530  39.9148460
  77.2859850  96.8896620  39.3029730  77.0963140  95.3937440  39.4376370
  79.8725910  89.5069600  43.2972130  79.4294060  90.2879140  42.9656650
  80.4310900  89.8299490  44.0043070  84.1595720  92.3738120  48.9007450
  83.6975090  92.5821140  49.7127390  83.7573830  91.5597470  48.5978120
  89.1600230  93.5947070  50.0304110  88.3093820  93.2952820  50.3513180
  89.0002020  93.8389080  49.1187930  86.2549940  95.0948820  52.1302900
  86.5803350  94.2612570  51.7905130  87.0430270  95.6177340  52.2781230
  82.9884730  89.1280300  38.1777960  82.3638910  89.1240170  38.9031270
  82.9014850  88.2611260  37.7813930  81.9101810  90.0516930  45.1561730
  82.2074140  90.9579760  45.0753750  82.4587370  89.5635710  44.5421300
  79.6640130  94.6303170  41.0253380  79.4381050  94.4140340  41.9300000
  78.8832660  95.0631630  40.6799350  86.8937890  94.6366540  39.6244030
  86.2946780  95.3602340  39.4407650  87.4417500  94.5743320  38.8420480
  82.1039340  95.5288750  51.6913650  82.0082940  94.5883480  51.5414050
  82.9471320  95.7503820  51.2961720  85.5002760  93.2730080  41.6547310
  85.8932330  93.5902280  40.8416000  85.8619610  92.3941960  41.7691830
  77.2349880  91.9402420  49.8447430  76.8413270  92.7877630  50.0520210
  76.5468280  91.3028790  50.0356070  83.8094930  92.0237390  52.9144170
  83.1193250  91.8309590  53.5490260  84.5527230  92.3072030  53.4468470
  74.5366930  89.8630880  43.8777510  74.2479980  90.4333740  44.5902490
  75.2812690  89.3835330  44.2408740  74.7237160  93.8051000  35.0880230
  74.6411830  94.7481760  35.2295220  74.3720220  93.6625910  34.2092580
  86.0857900  95.8635830  45.7498090  85.3539020  96.3722640  46.0988190
  85.6882240  95.0465810  45.4486870  82.5235290  92.5390030  44.1550580
  82.5271350  92.0979980  43.3055120  83.4186410  92.8607360  44.2622400
  78.3737670  92.4216520  43.1144790  78.0337720  92.8991750  43.8711840
  77.6114990  91.9681640  42.7545890  82.5855440  93.5402110  37.1457340
  82.7068260  93.4988590  38.0943160  82.2003950  94.4026260  36.9904070
  86.5483810  91.3169510  45.1621030  86.5656550  91.7678160  46.0062880
  86.2999390  90.4175150  45.3754470  81.5976940  95.8503250  36.5440640
  81.0293840  95.4021500  35.9176550  82.3065940  96.2096030  36.0105790
  89.9754560  88.7301690  51.0007410  90.3000330  87.9991350  51.5265390
  90.0111070  88.4115330  50.0988400  82.8243260  96.5991810  45.9015990
  83.1913390  96.1250380  46.6477330  82.6348320  97.4733380  46.2424330
  75.6883750  91.3435500  42.0309460  75.4030670  90.9791170  42.8688080
  75.6262610  90.6115960  41.4172600  80.6142630  95.6400450  48.2200200
  80.3099700  96.5192430  48.4450560  81.5689090  95.7000240  48.2557640
  85.3622340  90.2364760  38.7522830  84.5486950  89.7377930  38.6768140
  85.1684290  91.0763010  38.3359180  88.0770730  94.6084410  37.0484990
  88.9650350  94.9201640  36.8736330  88.0475820  93.7356660  36.6565570
  76.6706360  96.4803190  49.3671560  76.3121300  97.1457040  49.9544900
  76.3760920  95.6486740  49.7384180  79.8719480  96.9387430  52.2511110
  79.5719620  97.0844610  51.3538930  80.6430720  96.3792720  52.1584500
  75.1814410  96.4794450  35.9906160  76.0509260  96.7619250  36.2742080
  74.6904730  97.2930320  35.8754970  82.3449220  97.8667660  40.1114440
  82.8012000  98.6772910  40.3374630  81.9937430  97.5490800  40.9432930
  78.2461000  88.2105310  40.5836960  78.1175630  88.2023210  41.5321880
  77.4223020  88.5488400  40.2327970  75.2454930  89.9696430  50.0443660
  74.5313450  90.1693350  50.6496270  75.6649970  89.1936000  50.4158460
  86.7393710  92.4618740  47.7945110  87.1074530  91.6413950  48.1224680
  85.8791910  92.5220630  48.2100760  90.1055740  91.4175680  38.6032670
  89.4768900  91.5221350  37.8890900  89.6107660  91.6372460  39.3926550
  82.0739770  93.6961630  40.0190550  81.3655920  94.1647970  40.4604160
  82.3584250  93.0383640  40.6535740  83.6995700  95.1158330  48.0183080
  84.1980950  95.5904150  48.6834930  83.8418650  94.1921850  48.2253110
  86.1055200  90.4212290  41.4586340  85.9822980  90.4398420  40.5095850
  87.0539760  90.4691230  41.5784740  80.2774790  92.0046710  37.3941260
  81.1265320  92.4416860  37.3281450  79.9106060  92.3166970  38.2213320
  89.1984570  96.5759470  42.3072830  88.2574710  96.5909700  42.4820520
  89.5128640  95.7895430  42.7533130  79.1766210  98.2579070  35.8676790
  79.9429480  98.1460430  36.4302220  79.2540900  97.5617040  35.2153560
  77.8712970  95.6904140  36.5509680  77.9516560  94.7431650  36.6627080
  78.7632720  96.0211020  36.6570340  75.3983770  97.5119060  51.7865850
  75.9022790  96.9326340  52.3582080  74.6591190  97.7959290  52.3242220
  77.4306850  95.6548650  52.6815920  77.4712190  95.3562520  53.5901150
  78.2852350  96.0556260  52.5223440  81.2085240  98.2544200  37.8419430
  81.6301660  98.0884070  38.6850820  81.3336080  97.4444430  37.3474570
  79.3712660  94.2340750  50.6490410  78.8409120  93.7431700  50.0213750
  80.0400730  94.6624950  50.1148340  83.7212880  97.2781810  35.0896530
  84.2418540  96.5630830  34.7237680  84.3681280  97.9167680  35.3897040
  88.7412890  96.0406370  52.4170750  89.3233660  95.2858690  52.3291230
  88.9174660  96.5713810  51.6402230  79.8584960  91.2003120  50.7287700
  79.7641830  90.5823870  50.0038570  79.2782350  91.9269410  50.5017610
  82.6246400  89.7576360  47.7615090  82.1763700  89.7800620  46.9160640
  81.9911600  89.3595380  48.3585390  85.3669850  96.3846870  49.7665370
  85.4866060  95.7888010  50.5060210  86.2263850  96.4216560  49.3466670
  87.7057750  96.9384060  48.3427880  87.1792970  97.4626680  47.7393020
  88.0489090  97.5711450  48.9737610  80.1044140  94.3277430  34.7877590
  79.9033200  93.4644790  35.1490930  79.9336190  94.2410790  33.8499190
  82.1338620  92.9268220  51.0241190  82.7238310  92.6184070  51.7119010
  81.3158860  92.4547970  51.1801090  86.9532050  92.5434030  51.2574210
  86.2647570  91.8815570  51.1924200  87.6738070  92.0972300  51.7022670
  87.5832450  89.1385660  37.3164470  87.8634740  88.2953560  37.6723890
  86.8098180  89.3708770  37.8303220  78.9026940  91.4278050  34.7755470
  79.2052840  91.4345480  33.8674620  79.6421530  91.0775910  35.2723130
  82.1211870  90.3712670  35.7611670  81.7733870  89.6936660  35.1814120
  82.3224640  89.9102180  36.5755060  75.4617510  96.9000320  42.1576040
  74.8066350  96.6311960  41.5135740  76.2995460  96.7904800  41.7078020
  88.4107950  91.6941610  36.3794530  88.8292830  91.5072590  35.5391190
  88.1044010  90.8420660  36.6897460  76.4993440  97.2852890  46.6979380
  76.8666480  97.1980290  47.5775400  75.9304260  96.5219440  46.5986240
  76.0509440  94.1961980  50.6037800  75.1565490  94.1628740  50.9431510
  76.5906990  94.3948770  51.3689050  89.7385370  90.9793700  52.4889550
  90.6155550  90.9877100  52.8723550  89.7506210  90.2424540  51.8781900
  74.6755590  94.1099250  38.1001370  73.7719670  94.3729450  37.9253030
  75.1596210  94.3810420  37.3201330  77.2182800  93.1664790  36.0095750
  77.9274500  92.7448010  35.5243030  76.5022740  93.2340020  35.3779100
  76.8656960  89.2204120  35.0498400  77.5885090  89.7613060  35.3679620
  77.1381480  88.9467540  34.1739940  76.5549150  88.4710310  44.9521020
  77.2025340  87.9207690  44.5116180  76.9750990  88.7253460  45.7736830
  76.3081150  88.6265980  47.6946340  75.9595970  89.0829800  48.4604520
  75.9768850  87.7323110  47.7768770  83.8205970  89.8177860  51.2165760
  83.7594860  90.4099690  51.9661170  84.7606350  89.7103820  51.0716020
  86.4580530  89.4747920  50.8558050  87.0720940  89.7927210  50.1939130
  87.0030090  88.9896510  51.4753910  76.9801790  88.1542180  50.9697110
  77.5284780  87.9730230  50.2063220  77.0457100  87.3636290  51.5053420
  87.1988570  88.0380060  47.1827340  86.3248410  88.3715170  46.9800270
  87.0899320  87.5653240  48.0079210  88.1060550  90.2450930  48.5669060
  87.7773910  89.4302690  48.1870790  89.0542850  90.2020740  48.4434750
  84.9463390  88.9549900  46.1220250  84.1635180  89.4295400  46.4017010
  84.6526320  88.0504730  46.0133430  89.4984460  89.6573000  44.1669340
  89.9392550  89.6018100  43.3190940  89.2292050  90.5731010  44.2379520
  76.2903800  89.2597380  38.6433970  77.0483160  89.3726260  38.0698000
  75.8280970  90.0966580  38.5977400  82.8317610  91.3736650  41.6336280
  82.0192120  90.9993540  41.2932160  83.3359250  90.6181730  41.9357470
  87.3342590  88.0379100  42.8719350  87.9371960  88.6099310  43.3467870
  86.5935580  88.6018540  42.6493250  90.4777190  88.4400660  38.1459630
  90.6727820  89.3384110  38.4127060  89.6907060  88.2087740  38.6392580
  78.6628950  89.7861430  37.1835940  79.1921710  88.9991230  37.0543890
  79.2957270  90.4652620  37.4171470  80.8566790  89.5236570  40.2381330
  80.2269530  88.8223880  40.4051460  80.3171930  90.2840700  40.0214490
  80.9822350  88.8020550  52.6733820  80.7006620  89.3054150  51.9094640
  81.3642050  88.0042300  52.3075950  87.5837810  88.2174130  53.2514290
  87.4703260  88.5368740  54.1465810  88.4007550  88.6186640  52.9551570
  86.4895960  96.2366600  23.6149030  86.4090010  95.3221210  23.3440740
  86.0760380  96.7333670  22.9088740  84.6214000  98.0145620  25.4958300
  83.8456100  97.5346060  25.7856870  85.2726930  97.3351270  25.3214460
  78.6379830  98.3265430  26.3734060  77.8064710  98.0714140  26.7730570
  79.2460810  98.3976200  27.1091980  77.0471780  93.2867320  20.1576450
  76.1588480  93.6283290  20.0556330  77.3312970  93.0867640  19.2657280
  75.0104790  95.8872970  26.0416150  75.5820900  95.1195170  26.0419790
  75.0106330  96.1861730  25.1322760  76.2529660  91.2957330  27.8285080
  76.0732500  90.3983080  28.1087840  75.8509740  91.8429200  28.5032030
  85.0928160  93.4973190  25.7297390  85.4692980  92.6245070  25.6171060
  84.9947670  93.8331890  24.8387830  79.2233170  91.8698820  21.1914830
  79.3299920  92.7702550  21.4983590  78.3125530  91.8216790  20.9009480
  88.8752280  90.9923630  22.6625730  89.6961900  90.5020200  22.7051210
  88.9086360  91.5821290  23.4157570  76.8716330  93.7917830  26.4367420
  77.5526440  94.0556200  27.0554820  76.5564380  92.9518700  26.7705430
  81.0640900  94.8385190  25.5240010  81.5719120  95.3366160  26.1645030
  81.5954140  94.0620390  25.3479370  79.3477000  89.4783750  29.7903430
  79.3495440  89.9956140  28.9849330  78.5181310  89.0013930  29.7673360
  89.1113760  92.9324010  25.4353270  88.4069330  93.2208900  26.0156380
  89.4725920  93.7424120  25.0752830  79.0292330  91.1893710  27.7973880
  79.3709140  92.0335760  27.5027750  78.0908140  91.3377450  27.9139220
  82.7120220  88.6775980  24.1218470  83.0195200  88.1222870  23.4053970
  81.7820920  88.8120440  23.9391460  85.1000980  96.7424810  20.8578590
  84.1730260  96.6762190  21.0867060  85.2525800  97.6804940  20.7433830
  85.0870060  93.0141810  17.8545750  84.1473730  93.1755770  17.9398210
  85.4053320  93.7327490  17.3081740  89.1298270  98.3045110  21.3613840
  88.5110690  97.9664660  20.7140140  89.1122720  97.6604870  22.0693030
  88.5724830  94.4829650  28.7779650  88.1596010  95.3083360  29.0319640
  87.8400780  93.8974690  28.5856010  80.7057620  97.2689550  23.6398320
  80.3014620  96.5566800  23.1444220  80.7920740  96.9242790  24.5286360
  79.4186240  94.0432760  27.4197360  79.9700830  94.1528100  26.6450610
  79.9329750  94.4170360  28.1352590  87.3062970  97.5431920  18.3686590
  87.7456250  96.7054350  18.2224410  88.0191390  98.1761320  18.4550730
  79.0928970  97.5652120  31.0302700  78.9536740  98.4374920  31.3990100
  78.2110330  97.2224930  30.8850640  77.4062250  96.1634530  21.1404970
  77.2859850  96.8896620  20.5286240  77.0963140  95.3937440  20.6632880
  79.8725910  89.5069600  24.5228640  79.4294060  90.2879140  24.1913160
  80.4310900  89.8299490  25.2299580  84.1595720  92.3738120  30.1263960
  83.6975090  92.5821140  30.9383900  83.7573830  91.5597470  29.8234630
  89.1600230  93.5947070  31.2560620  88.3093820  93.2952820  31.5769690
  89.0002020  93.8389080  30.3444440  86.2549940  95.0948820  33.3559410
  86.5803350  94.2612570  33.0161640  87.0430270  95.6177340  33.5037740
  82.9884730  89.1280300  19.4034470  82.3638910  89.1240170  20.1287780
  82.9014850  88.2611260  19.0070440  81.9101810  90.0516930  26.3818240
  82.2074140  90.9579760  26.3010260  82.4587370  89.5635710  25.7677810
  79.6640130  94.6303170  22.2509890  79.4381050  94.4140340  23.1556510
  78.8832660  95.0631630  21.9055860  86.8937890  94.6366540  20.8500540
  86.2946780  95.3602340  20.6664160  87.4417500  94.5743320  20.0676990
  82.1039340  95.5288750  32.9170160  82.0082940  94.5883480  32.7670560
  82.9471320  95.7503820  32.5218230  85.5002760  93.2730080  22.8803820
  85.8932330  93.5902280  22.0672510  85.8619610  92.3941960  22.9948340
  77.2349880  91.9402420  31.0703940  76.8413270  92.7877630  31.2776720
  76.5468280  91.3028790  31.2612580  83.8094930  92.0237390  34.1400680
  83.1193250  91.8309590  34.7746770  84.5527230  92.3072030  34.6724980
  74.5366930  89.8630880  25.1034020  74.2479980  90.4333740  25.8159000
  75.2812690  89.3835330  25.4665250  74.7237160  93.8051000  16.3136740
  74.6411830  94.7481760  16.4551730  74.3720220  93.6625910  15.4349090
  86.0857900  95.8635830  26.9754600  85.3539020  96.3722640  27.3244700
  85.6882240  95.0465810  26.6743380  82.5235290  92.5390030  25.3807090
  82.5271350  92.0979980  24.5311630  83.4186410  92.8607360  25.4878910
  78.3737670  92.4216520  24.3401300  78.0337720  92.8991750  25.0968350
  77.6114990  91.9681640  23.9802400  82.5855440  93.5402110  18.3713850
  82.7068260  93.4988590  19.3199670  82.2003950  94.4026260  18.2160580
  86.5483810  91.3169510  26.3877540  86.5656550  91.7678160  27.2319390
  86.2999390  90.4175150  26.6010980  81.5976940  95.8503250  17.7697150
  81.0293840  95.4021500  17.1433060  82.3065940  96.2096030  17.2362300
  89.9754560  88.7301690  32.2263920  90.3000330  87.9991350  32.7521900
  90.0111070  88.4115330  31.3244910  82.8243260  96.5991810  27.1272500
  83.1913390  96.1250380  27.8733840  82.6348320  97.4733380  27.4680840
  75.6883750  91.3435500  23.2565970  75.4030670  90.9791170  24.0944590
  75.6262610  90.6115960  22.6429110  80.6142630  95.6400450  29.4456710
  80.3099700  96.5192430  29.6707070  81.5689090  95.7000240  29.4814150
  85.3622340  90.2364760  19.9779340  84.5486950  89.7377930  19.9024650
  85.1684290  91.0763010  19.5615690  88.0770730  94.6084410  18.2741500
  88.9650350  94.9201640  18.0992840  88.0475820  93.7356660  17.8822080
  76.6706360  96.4803190  30.5928070  76.3121300  97.1457040  31.1801410
  76.3760920  95.6486740  30.9640690  79.8719480  96.9387430  33.4767620
  79.5719620  97.0844610  32.5795440  80.6430720  96.3792720  33.3841010
  75.1814410  96.4794450  17.2162670  76.0509260  96.7619250  17.4998590
  74.6904730  97.2930320  17.1011480  82.3449220  97.8667660  21.3370950
  82.8012000  98.6772910  21.5631140  81.9937430  97.5490800  22.1689440
  78.2461000  88.2105310  21.8093470  78.1175630  88.2023210  22.7578390
  77.4223020  88.5488400  21.4584480  75.2454930  89.9696430  31.2700170
  74.5313450  90.1693350  31.8752780  75.6649970  89.1936000  31.6414970
  86.7393710  92.4618740  29.0201620  87.1074530  91.6413950  29.3481190
  85.8791910  92.5220630  29.4357270  90.1055740  91.4175680  19.8289180
  89.4768900  91.5221350  19.1147410  89.6107660  91.6372460  20.6183060
  82.0739770  93.6961630  21.2447060  81.3655920  94.1647970  21.6860670
  82.3584250  93.0383640  21.8792250  83.6995700  95.1158330  29.2439590
  84.1980950  95.5904150  29.9091440  83.8418650  94.1921850  29.4509620
  86.1055200  90.4212290  22.6842850  85.9822980  90.4398420  21.7352360
  87.0539760  90.4691230  22.8041250  80.2774790  92.0046710  18.6197770
  81.1265320  92.4416860  18.5537960  79.9106060  92.3166970  19.4469830
  89.1984570  96.5759470  23.5329340  88.2574710  96.5909700  23.7077030
  89.5128640  95.7895430  23.9789640  79.1766210  98.2579070  17.0933300
  79.9429480  98.1460430  17.6558730  79.2540900  97.5617040  16.4410070
  77.8712970  95.6904140  17.7766190  77.9516560  94.7431650  17.8883590
  78.7632720  96.0211020  17.8826850  75.3983770  97.5119060  33.0122360
  75.9022790  96.9326340  33.5838590  74.6591190  97.7959290  33.5498730
  77.4306850  95.6548650  33.9072430  77.4712190  95.3562520  34.8157660
  78.2852350  96.0556260  33.7479950  81.2085240  98.2544200  19.0675940
  81.6301660  98.0884070  19.9107330  81.3336080  97.4444430  18.5731080
  79.3712660  94.2340750  31.8746920  78.8409120  93.7431700  31.2470260
  80.0400730  94.6624950  31.3404850  83.7212880  97.2781810  16.3153040
  84.2418540  96.5630830  15.9494190  84.3681280  97.9167680  16.6153550
  88.7412890  96.0406370  33.6427260  89.3233660  95.2858690  33.5547740
  88.9174660  96.5713810  32.8658740  79.8584960  91.2003120  31.9544210
  79.7641830  90.5823870  31.2295080  79.2782350  91.9269410  31.7274120
  82.6246400  89.7576360  28.9871600  82.1763700  89.7800620  28.1417150
  81.9911600  89.3595380  29.5841900  85.3669850  96.3846870  30.9921880
  85.4866060  95.7888010  31.7316720  86.2263850  96.4216560  30.5723180
  87.7057750  96.9384060  29.5684390  87.1792970  97.4626680  28.9649530
  88.0489090  97.5711450  30.1994120  80.1044140  94.3277430  16.0134100
  79.9033200  93.4644790  16.3747440  79.9336190  94.2410790  15.0755700
  82.1338620  92.9268220  32.2497700  82.7238310  92.6184070  32.9375520
  81.3158860  92.4547970  32.4057600  86.9532050  92.5434030  32.4830720
  86.2647570  91.8815570  32.4180710  87.6738070  92.0972300  32.9279180
  87.5832450  89.1385660  18.5420980  87.8634740  88.2953560  18.8980400
  86.8098180  89.3708770  19.0559730  78.9026940  91.4278050  16.0011980
  79.2052840  91.4345480  15.0931130  79.6421530  91.0775910  16.4979640
  82.1211870  90.3712670  16.9868180  81.7733870  89.6936660  16.4070630
  82.3224640  89.9102180  17.8011570  75.4617510  96.9000320  23.3832550
  74.8066350  96.6311960  22.7392250  76.2995460  96.7904800  22.9334530
  88.4107950  91.6941610  17.6051040  88.8292830  91.5072590  16.7647700
  88.1044010  90.8420660  17.9153970  76.4993440  97.2852890  27.9235890
  76.8666480  97.1980290  28.8031910  75.9304260  96.5219440  27.8242750
  76.0509440  94.1961980  31.8294310  75.1565490  94.1628740  32.1688020
  76.5906990  94.3948770  32.5945560  89.7385370  90.9793700  33.7146060
  90.6155550  90.9877100  34.0980060  89.7506210  90.2424540  33.1038410
  74.6755590  94.1099250  19.3257880  73.7719670  94.3729450  19.1509540
  75.1596210  94.3810420  18.5457840  77.2182800  93.1664790  17.2352260
  77.9274500  92.7448010  16.7499540  76.5022740  93.2340020  16.6035610
  76.8656960  89.2204120  16.2754910  77.5885090  89.7613060  16.5936130
  77.1381480  88.9467540  15.3996450  76.5549150  88.4710310  26.1777530
  77.2025340  87.9207690  25.7372690  76.9750990  88.7253460  26.9993340
  76.3081150  88.6265980  28.9202850  75.9595970  89.0829800  29.6861030
  75.9768850  87.7323110  29.0025280  83.8205970  89.8177860  32.4422270
  83.7594860  90.4099690  33.1917680  84.7606350  89.7103820  32.2972530
  86.4580530  89.4747920  32.0814560  87.0720940  89.7927210  31.4195640
  87.0030090  88.9896510  32.7010420  76.9801790  88.1542180  32.1953620
  77.5284780  87.9730230  31.4319730  77.0457100  87.3636290  32.7309930
  87.1988570  88.0380060  28.4083850  86.3248410  88.3715170  28.2056780
  87.0899320  87.5653240  29.2335720  88.1060550  90.2450930  29.7925570
  87.7773910  89.4302690  29.4127300  89.0542850  90.2020740  29.6691260
  84.9463390  88.9549900  27.3476760  84.1635180  89.4295400  27.6273520
  84.6526320  88.0504730  27.2389940  89.4984460  89.6573000  25.3925850
  89.9392550  89.6018100  24.5447450  89.2292050  90.5731010  25.4636030
  76.2903800  89.2597380  19.8690480  77.0483160  89.3726260  19.2954510
  75.8280970  90.0966580  19.8233910  82.8317610  91.3736650  22.8592790
  82.0192120  90.9993540  22.5188670  83.3359250  90.6181730  23.1613980
  87.3342590  88.0379100  24.0975860  87.9371960  88.6099310  24.5724380
  86.5935580  88.6018540  23.8749760  90.4777190  88.4400660  19.3716140
  90.6727820  89.3384110  19.6383570  89.6907060  88.2087740  19.8649090
  78.6628950  89.7861430  18.4092450  79.1921710  88.9991230  18.2800400
  79.2957270  90.4652620  18.6427980  80.8566790  89.5236570  21.4637840
  80.2269530  88.8223880  21.6307970  80.3171930  90.2840700  21.2471000
  80.9822350  88.8020550  33.8990330  80.7006620  89.3054150  33.1351150
  81.3642050  88.0042300  33.5332460  87.5837810  88.2174130  34.4770800
  87.4703260  88.5368740  35.3722320  88.4007550  88.6186640  34.1808080
  86.4895960  96.2366600   4.8405540  86.4090010  95.3221210   4.5697250
  86.0760380  96.7333670   4.1345250  84.6214000  98.0145620   6.7214810
  83.8456100  97.5346060   7.0113380  85.2726930  97.3351270   6.5470970
  78.6379830  98.3265430   7.5990570  77.8064710  98.0714140   7.9987080
  79.2460810  98.3976200   8.3348490  75.0104790  95.8872970   7.2672660
  75.5820900  95.1195170   7.2676300  75.0106330  96.1861730   6.3579270
  76.2529660  91.2957330   9.0541590  76.0732500  90.3983080   9.3344350
  75.8509740  91.8429200   9.7288540  85.0928160  93.4973190   6.9553900
  85.4692980  92.6245070   6.8427570  84.9947670  93.8331890   6.0644340
  79.2233170  91.8698820   2.4171340  79.3299920  92.7702550   2.7240100
  78.3125530  91.8216790   2.1265990  88.8752280  90.9923630   3.8882240
  89.6961900  90.5020200   3.9307720  88.9086360  91.5821290   4.6414080
  76.8716330  93.7917830   7.6623930  77.5526440  94.0556200   8.2811330
  76.5564380  92.9518700   7.9961940  81.0640900  94.8385190   6.7496520
  81.5719120  95.3366160   7.3901540  81.5954140  94.0620390   6.5735880
  79.3477000  89.4783750  11.0159940  79.3495440  89.9956140  10.2105840
  78.5181310  89.0013930  10.9929870  89.1113760  92.9324010   6.6609780
  88.4069330  93.2208900   7.2412890  89.4725920  93.7424120   6.3009340
  79.0292330  91.1893710   9.0230390  79.3709140  92.0335760   8.7284260
  78.0908140  91.3377450   9.1395730  82.7120220  88.6775980   5.3474980
  83.0195200  88.1222870   4.6310480  81.7820920  88.8120440   5.1647970
  85.1000980  96.7424810   2.0835100  84.1730260  96.6762190   2.3123570
  85.2525800  97.6804940   1.9690340  89.1298270  98.3045110   2.5870350
  88.5110690  97.9664660   1.9396650  89.1122720  97.6604870   3.2949540
  88.5724830  94.4829650  10.0036160  88.1596010  95.3083360  10.2576150
  87.8400780  93.8974690   9.8112520  80.7057620  97.2689550   4.8654830
  80.3014620  96.5566800   4.3700730  80.7920740  96.9242790   5.7542870
  79.4186240  94.0432760   8.6453870  79.9700830  94.1528100   7.8707120
  79.9329750  94.4170360   9.3609100  79.0928970  97.5652120  12.2559210
  78.9536740  98.4374920  12.6246610  78.2110330  97.2224930  12.1107150
  77.4062250  96.1634530   2.3661480  77.2859850  96.8896620   1.7542750
  77.0963140  95.3937440   1.8889390  79.8725910  89.5069600   5.7485150
  79.4294060  90.2879140   5.4169670  80.4310900  89.8299490   6.4556090
  84.1595720  92.3738120  11.3520470  83.6975090  92.5821140  12.1640410
  83.7573830  91.5597470  11.0491140  89.1600230  93.5947070  12.4817130
  88.3093820  93.2952820  12.8026200  89.0002020  93.8389080  11.5700950
  86.2549940  95.0948820  14.5815920  86.5803350  94.2612570  14.2418150
  87.0430270  95.6177340  14.7294250  81.9101810  90.0516930   7.6074750
  82.2074140  90.9579760   7.5266770  82.4587370  89.5635710   6.9934320
  79.6640130  94.6303170   3.4766400  79.4381050  94.4140340   4.3813020
  78.8832660  95.0631630   3.1312370  82.1039340  95.5288750  14.1426670
  82.0082940  94.5883480  13.9927070  82.9471320  95.7503820  13.7474740
  85.5002760  93.2730080   4.1060330  85.8932330  93.5902280   3.2929020
  85.8619610  92.3941960   4.2204850  77.2349880  91.9402420  12.2960450
  76.8413270  92.7877630  12.5033230  76.5468280  91.3028790  12.4869090
  83.8094930  92.0237390  15.3657190  83.1193250  91.8309590  16.0003280
  84.5527230  92.3072030  15.8981490  74.5366930  89.8630880   6.3290530
  74.2479980  90.4333740   7.0415510  75.2812690  89.3835330   6.6921760
  86.0857900  95.8635830   8.2011110  85.3539020  96.3722640   8.5501210
  85.6882240  95.0465810   7.8999890  82.5235290  92.5390030   6.6063600
  82.5271350  92.0979980   5.7568140  83.4186410  92.8607360   6.7135420
  78.3737670  92.4216520   5.5657810  78.0337720  92.8991750   6.3224860
  77.6114990  91.9681640   5.2058910  86.5483810  91.3169510   7.6134050
  86.5656550  91.7678160   8.4575900  86.2999390  90.4175150   7.8267490
  89.9754560  88.7301690  13.4520430  90.3000330  87.9991350  13.9778410
  90.0111070  88.4115330  12.5501420  82.8243260  96.5991810   8.3529010
  83.1913390  96.1250380   9.0990350  82.6348320  97.4733380   8.6937350
  75.6883750  91.3435500   4.4822480  75.4030670  90.9791170   5.3201100
  75.6262610  90.6115960   3.8685620  80.6142630  95.6400450  10.6713220
  80.3099700  96.5192430  10.8963580  81.5689090  95.7000240  10.7070660
  76.6706360  96.4803190  11.8184580  76.3121300  97.1457040  12.4057920
  76.3760920  95.6486740  12.1897200  79.8719480  96.9387430  14.7024130
  79.5719620  97.0844610  13.8051950  80.6430720  96.3792720  14.6097520
  82.3449220  97.8667660   2.5627460  82.8012000  98.6772910   2.7887650
  81.9937430  97.5490800   3.3945950  78.2461000  88.2105310   3.0349980
  78.1175630  88.2023210   3.9834900  77.4223020  88.5488400   2.6840990
  75.2454930  89.9696430  12.4956680  74.5313450  90.1693350  13.1009290
  75.6649970  89.1936000  12.8671480  86.7393710  92.4618740  10.2458130
  87.1074530  91.6413950  10.5737700  85.8791910  92.5220630  10.6613780
  82.0739770  93.6961630   2.4703570  81.3655920  94.1647970   2.9117180
  82.3584250  93.0383640   3.1048760  83.6995700  95.1158330  10.4696100
  84.1980950  95.5904150  11.1347950  83.8418650  94.1921850  10.6766130
  86.1055200  90.4212290   3.9099360  85.9822980  90.4398420   2.9608870
  87.0539760  90.4691230   4.0297760  89.1984570  96.5759470   4.7585850
  88.2574710  96.5909700   4.9333540  89.5128640  95.7895430   5.2046150
  75.3983770  97.5119060  14.2378870  75.9022790  96.9326340  14.8095100
  74.6591190  97.7959290  14.7755240  77.4306850  95.6548650  15.1328940
  77.4712190  95.3562520  16.0414170  78.2852350  96.0556260  14.9736460
  79.3712660  94.2340750  13.1003430  78.8409120  93.7431700  12.4726770
  80.0400730  94.6624950  12.5661360  88.7412890  96.0406370  14.8683770
  89.3233660  95.2858690  14.7804250  88.9174660  96.5713810  14.0915250
  79.8584960  91.2003120  13.1800720  79.7641830  90.5823870  12.4551590
  79.2782350  91.9269410  12.9530630  82.6246400  89.7576360  10.2128110
  82.1763700  89.7800620   9.3673660  81.9911600  89.3595380  10.8098410
  85.3669850  96.3846870  12.2178390  85.4866060  95.7888010  12.9573230
  86.2263850  96.4216560  11.7979690  87.7057750  96.9384060  10.7940900
  87.1792970  97.4626680  10.1906040  88.0489090  97.5711450  11.4250630
  82.1338620  92.9268220  13.4754210  82.7238310  92.6184070  14.1632030
  81.3158860  92.4547970  13.6314110  86.9532050  92.5434030  13.7087230
  86.2647570  91.8815570  13.6437220  87.6738070  92.0972300  14.1535690
  75.4617510  96.9000320   4.6089060  74.8066350  96.6311960   3.9648760
  76.2995460  96.7904800   4.1591040  76.4993440  97.2852890   9.1492400
  76.8666480  97.1980290  10.0288420  75.9304260  96.5219440   9.0499260
  76.0509440  94.1961980  13.0550820  75.1565490  94.1628740  13.3944530
  76.5906990  94.3948770  13.8202070  89.7385370  90.9793700  14.9402570
  90.6155550  90.9877100  15.3236570  89.7506210  90.2424540  14.3294920
  76.5549150  88.4710310   7.4034040  77.2025340  87.9207690   6.9629200
  76.9750990  88.7253460   8.2249850  76.3081150  88.6265980  10.1459360
  75.9595970  89.0829800  10.9117540  75.9768850  87.7323110  10.2281790
  83.8205970  89.8177860  13.6678780  83.7594860  90.4099690  14.4174190
  84.7606350  89.7103820  13.5229040  86.4580530  89.4747920  13.3071070
  87.0720940  89.7927210  12.6452150  87.0030090  88.9896510  13.9266930
  76.9801790  88.1542180  13.4210130  77.5284780  87.9730230  12.6576240
  77.0457100  87.3636290  13.9566440  87.1988570  88.0380060   9.6340360
  86.3248410  88.3715170   9.4313290  87.0899320  87.5653240  10.4592230
  88.1060550  90.2450930  11.0182080  87.7773910  89.4302690  10.6383810
  89.0542850  90.2020740  10.8947770  84.9463390  88.9549900   8.5733270
  84.1635180  89.4295400   8.8530030  84.6526320  88.0504730   8.4646450
  89.4984460  89.6573000   6.6182360  89.9392550  89.6018100   5.7703960
  89.2292050  90.5731010   6.6892540  82.8317610  91.3736650   4.0849300
  82.0192120  90.9993540   3.7445180  83.3359250  90.6181730   4.3870490
  87.3342590  88.0379100   5.3232370  87.9371960  88.6099310   5.7980890
  86.5935580  88.6018540   5.1006270  80.8566790  89.5236570   2.6894350
  80.2269530  88.8223880   2.8564480  80.3171930  90.2840700   2.4727510
  80.9822350  88.8020550  15.1246840  80.7006620  89.3054150  14.3607660
  81.3642050  88.0042300  14.7588970  87.5837810  88.2174130  15.7027310
  87.4703260  88.5368740  16.5978830  88.4007550  88.6186640  15.4064590
  86.4895960  77.4623110  61.1636010  86.4090010  76.5477720  60.8927720
  86.0760380  77.9590180  60.4575720  84.6214000  79.2402130  63.0445280
  83.8456100  78.7602570  63.3343850  85.2726930  78.5607780  62.8701440
  78.6379830  79.5521940  63.9221040  77.8064710  79.2970650  64.3217550
  79.2460810  79.6232710  64.6578960  88.6421430  83.6462320  61.8244410
  88.1802960  82.8749560  62.1531580  89.4546980  83.6728390  62.3296860
  78.6181090  83.5862030  64.1179060  78.9209130  82.6959770  63.9389280
  79.3624680  84.1432250  63.8901310  77.0471780  74.5123830  57.7063430
  76.1588480  74.8539800  57.6043310  77.3312970  74.3124150  56.8144260
  75.0104790  77.1129480  63.5903130  75.5820900  76.3451680  63.5906770
  75.0106330  77.4118240  62.6809740  84.8684740  85.9320330  61.4448400
  84.2496180  86.3877830  60.8742840  85.7236520  86.0871790  61.0438100
  84.0622990  81.9159320  63.0515440  83.9931270  80.9749260  62.8904570
  84.8242850  82.0060730  63.6238010  76.2529660  72.5213840  65.3772060
  76.0732500  71.6239590  65.6574820  75.8509740  73.0685710  66.0519010
  85.0928160  74.7229700  63.2784370  85.4692980  73.8501580  63.1658040
  84.9947670  75.0588400  62.3874810  79.2233170  73.0955330  58.7401810
  79.3299920  73.9959060  59.0470570  78.3125530  73.0473300  58.4496460
  88.8752280  72.2180140  60.2112710  89.6961900  71.7276710  60.2538190
  88.9086360  72.8077800  60.9644550  76.8716330  75.0174340  63.9854400
  77.5526440  75.2812710  64.6041800  76.5564380  74.1775210  64.3192410
  81.0640900  76.0641700  63.0726990  81.5719120  76.5622670  63.7132010
  81.5954140  75.2876900  62.8966350  79.3477000  70.7040260  67.3390410
  79.3495440  71.2212650  66.5336310  78.5181310  70.2270440  67.3160340
  85.7348090  80.8159570  58.8380310  85.1165360  81.2809020  58.2743030
  86.2471340  81.5087050  59.2549820  80.5979850  80.3435440  65.5163910
  80.2649230  80.9704360  66.1584980  80.7746530  80.8697320  64.7365580
  89.1113760  74.1580520  62.9840250  88.4069330  74.4465410  63.5643360
  89.4725920  74.9680630  62.6239810  79.0292330  72.4150220  65.3460860
  79.3709140  73.2592270  65.0514730  78.0908140  72.5633960  65.4626200
  79.8098950  82.3116240  67.3313090  80.4272950  82.9867320  67.0497540
  78.9492070  82.7204220  67.2400590  75.1031290  81.5016100  56.2119940
  74.7259270  81.9903200  55.4804840  75.3604360  82.1741380  56.8426470
  82.7120220  69.9032490  61.6705450  83.0195200  69.3479380  60.9540950
  81.7820920  70.0376950  61.4878440  88.2635280  85.6199780  63.9612910
  88.2762440  85.2162070  63.0935170  87.7110500  86.3947070  63.8574340
  89.5580700  82.3416000  59.0503080  89.4477030  81.3990330  59.1752500
  89.5548950  82.7031640  59.9365840  87.6620720  80.5229620  65.2895520
  88.0789510  80.3089730  64.4548980  88.3860540  80.7802410  65.8604140
  85.1000980  77.9681320  58.4065570  84.1730260  77.9018700  58.6354040
  85.2525800  78.9061450  58.2920810  85.0870060  74.2398320  55.4032730
  84.1473730  74.4012280  55.4885190  85.4053320  74.9584000  54.8568720
  89.1298270  79.5301620  58.9100820  88.5110690  79.1921170  58.2627120
  89.1122720  78.8861380  59.6180010  88.5724830  75.7086160  66.3266630
  88.1596010  76.5339870  66.5806620  87.8400780  75.1231200  66.1342990
  80.7057620  78.4946060  61.1885300  80.3014620  77.7823310  60.6931200
  80.7920740  78.1499300  62.0773340  81.1739320  82.1813620  63.3524510
  80.8767610  81.5759090  62.6732290  82.1239140  82.2190930  63.2413870
  79.4186240  75.2689270  64.9684340  79.9700830  75.3784610  64.1937590
  79.9329750  75.6426870  65.6839570  89.2624930  85.7545490  67.0147610
  88.7855490  86.5617680  66.8220220  88.5786720  85.1023820  67.1673820
  87.3062970  78.7688430  55.9173570  87.7456250  77.9310860  55.7711390
  88.0191390  79.4017830  56.0037710  85.4158350  83.7084500  59.8854810
  85.8554260  84.4508830  59.4710200  85.3545240  83.9511070  60.8093770
  77.4062250  77.3891040  58.6891950  77.2859850  78.1153130  58.0773220
  77.0963140  76.6193950  58.2119860  75.0447620  80.5606180  64.4960590
  75.1228040  80.6954950  63.5516310  75.6589300  79.8522070  64.6888710
  76.2895250  82.2606370  60.9066770  75.8823330  82.4020960  60.0520370
  77.1808260  81.9766530  60.7037980  88.0828530  86.6953620  57.2417820
  87.9229670  86.4056560  58.1399650  87.9175240  85.9193750  56.7063050
  80.5616910  86.4752150  59.0189440  80.3859390  85.5587690  58.8057240
  79.7072650  86.8339440  59.2587240  87.7854660  84.2041180  55.8015820
  87.0919820  84.2018470  55.1418100  88.5277520  83.7800500  55.3709990
  87.3504590  85.8303890  59.8764310  87.8061540  85.0493270  60.1902930
  87.6897110  86.5410710  60.4205490  75.1007140  81.6020350  67.0355050
  75.2638180  81.1325710  66.2174420  75.5659590  81.0943910  67.7003890
  79.8725910  70.7326110  62.0715620  79.4294060  71.5135650  61.7400140
  80.4310900  71.0556000  62.7786560  82.9884730  70.3536810  56.9521450
  82.3638910  70.3496680  57.6774760  82.9014850  69.4867770  56.5557420
  81.9101810  71.2773440  63.9305220  82.2074140  72.1836270  63.8497240
  82.4587370  70.7892220  63.3164790  79.6640130  75.8559680  59.7996870
  79.4381050  75.6396850  60.7043490  78.8832660  76.2888140  59.4542840
  86.8937890  75.8623050  58.3987520  86.2946780  76.5858850  58.2151140
  87.4417500  75.7999830  57.6163970  85.5002760  74.4986590  60.4290800
  85.8932330  74.8158790  59.6159490  85.8619610  73.6198470  60.5435320
  74.5366930  71.0887390  62.6521000  74.2479980  71.6590250  63.3645980
  75.2812690  70.6091840  63.0152230  74.7237160  75.0307510  53.8623720
  74.6411830  75.9738270  54.0038710  74.3720220  74.8882420  52.9836070
  86.0857900  77.0892340  64.5241580  85.3539020  77.5979150  64.8731680
  85.6882240  76.2722320  64.2230360  82.5235290  73.7646540  62.9294070
  82.5271350  73.3236490  62.0798610  83.4186410  74.0863870  63.0365890
  78.3737670  73.6473030  61.8888280  78.0337720  74.1248260  62.6455330
  77.6114990  73.1938150  61.5289380  82.5855440  74.7658620  55.9200830
  82.7068260  74.7245100  56.8686650  82.2003950  75.6282770  55.7647560
  86.5483810  72.5426020  63.9364520  86.5656550  72.9934670  64.7806370
  86.2999390  71.6431660  64.1497960  81.5976940  77.0759760  55.3184130
  81.0293840  76.6278010  54.6920040  82.3065940  77.4352540  54.7849280
  82.8243260  77.8248320  64.6759480  83.1913390  77.3506890  65.4220820
  82.6348320  78.6989890  65.0167820  75.6883750  72.5692010  60.8052950
  75.4030670  72.2047680  61.6431570  75.6262610  71.8372470  60.1916090
  80.6142630  76.8656960  66.9943690  80.3099700  77.7448940  67.2194050
  81.5689090  76.9256750  67.0301130  79.1424420  81.0717950  57.5910540
  78.3686680  80.5315570  57.4309260  79.8719050  80.5524560  57.2528300
  89.9012400  80.0683310  63.3836930  90.6211520  80.5638600  62.9933040
  89.6994220  79.3901200  62.7390800  85.3622340  71.4621270  57.5266320
  84.5486950  70.9634440  57.4511630  85.1684290  72.3019520  57.1102670
  88.0770730  75.8340920  55.8228480  88.9650350  76.1458150  55.6479820
  88.0475820  74.9613170  55.4309060  79.1861820  80.7398330  61.2289350
  79.7040490  79.9366590  61.1746240  78.7345840  80.6777470  62.0706180
  84.0731320  82.0064610  56.5016650  84.4147020  82.7506840  56.0059970
  83.2444030  82.3195730  56.8641480  86.9558730  81.3280450  61.8662160
  87.3082550  80.7308580  61.2063530  86.0721060  81.0024680  62.0370410
  83.0422010  82.0878140  59.2732570  83.7293140  82.6347350  59.6540160
  82.2554430  82.6318870  59.3082180  75.1814410  77.7050960  54.7649650
  76.0509260  77.9875760  55.0485570  74.6904730  78.5186830  54.6498460
  82.3449220  79.0924170  58.8857930  82.8012000  79.9029420  59.1118120
  81.9937430  78.7747310  59.7176420  84.6481830  84.6030510  66.1150230
  85.2924050  84.8089890  66.7923650  85.0111270  83.8418910  65.6621080
  78.2461000  69.4361820  59.3580450  78.1175630  69.4279720  60.3065370
  77.4223020  69.7744910  59.0071460  85.9213910  82.6062860  64.8327680
  86.5636140  81.9056020  64.9459850  86.4463260  83.3861300  64.6524570
  89.7669630  82.8911480  54.5566820  89.5407210  82.1741920  55.1491460
  89.3765830  82.6423920  53.7188570  75.5485660  86.9178340  55.3311280
  75.9083300  87.5167680  54.6768550  75.4078000  87.4638230  56.1046310
  89.3485880  80.8083420  56.2180980  89.0607580  81.2696110  57.0058860
  90.1438050  80.3481190  56.4865200  81.5654280  84.3009540  56.1484950
  81.5564380  85.0339230  55.5329460  80.6452640  84.0541120  56.2411910
  77.1660920  79.5224430  56.8931710  76.5588870  80.2623330  56.9027010
  77.6410270  79.6123790  56.0669910  86.7393710  73.6875250  66.5688600
  87.1074530  72.8670460  66.8968170  85.8791910  73.7477140  66.9844250
  90.1055740  72.6432190  57.3776160  89.4768900  72.7477860  56.6634390
  89.6107660  72.8628970  58.1670040  84.5513880  84.3637780  54.8110140
  84.6525860  84.1601770  53.8812120  83.6515620  84.1096060  55.0157920
  82.0739770  74.9218140  58.7934040  81.3655920  75.3904480  59.2347650
  82.3584250  74.2640150  59.4279230  83.6995700  76.3414840  66.7926570
  84.1980950  76.8160660  67.4578420  83.8418650  75.4178360  66.9996600
  86.1055200  71.6468800  60.2329830  85.9822980  71.6654930  59.2839340
  87.0539760  71.6947740  60.3528230  83.1931990  86.8824100  59.5057810
  83.4473490  86.8445490  58.5837180  82.2444470  86.7557430  59.4986060
  80.2774790  73.2303220  56.1684750  81.1265320  73.6673370  56.1024940
  79.9106060  73.5423480  56.9956810  89.1984570  77.8015980  61.0816320
  88.2574710  77.8166210  61.2564010  89.5128640  77.0151940  61.5276620
  79.1766210  79.4835580  54.6420280  79.9429480  79.3716940  55.2045710
  79.2540900  78.7873550  53.9897050  77.8712970  76.9160650  55.3253170
  77.9516560  75.9688160  55.4370570  78.7632720  77.2467530  55.4313830
  78.6727680  87.0656040  62.4287710  79.4090160  86.5171500  62.6996280
  79.0568600  87.9312050  62.2893700  75.5573160  83.1329610  58.3029220
  74.6312940  83.3750750  58.2934630  76.0229590  83.9603870  58.1813970
  81.7829990  86.2386350  54.2513280  82.5758600  86.5275180  53.7995070
  81.2634340  85.8078520  53.5725760  82.3007390  81.4589760  54.1155630
  82.1958030  80.8442110  54.8417010  82.1331610  80.9355650  53.3318640
  85.5410120  80.5209790  54.7197620  84.9920220  80.9679090  55.3640360
  86.1629380  80.0159040  55.2435290  81.2085240  79.4800710  56.6162920
  81.6301660  79.3140580  57.4594310  81.3336080  78.6700940  56.1218060
  83.7212880  78.5038320  53.8640020  84.2418540  77.7887340  53.4981170
  84.3681280  79.1424190  54.1640530  82.6246400  70.9832870  66.5358580
  82.1763700  71.0057130  65.6904130  81.9911600  70.5851890  67.1328880
  83.0305950  79.8787200  67.1571020  83.4494060  80.7219930  66.9847260
  82.1114580  80.0159240  66.9277800  87.7057750  78.1640570  67.1171370
  87.1792970  78.6883190  66.5136510  88.0489090  78.7967960  67.7481100
  80.1044140  75.5533940  53.5621080  79.9033200  74.6901300  53.9234420
  79.9336190  75.4667300  52.6242680  87.5832450  70.3642170  56.0907960
  87.8634740  69.5210070  56.4467380  86.8098180  70.5965280  56.6046710
  78.9026940  72.6534560  53.5498960  79.2052840  72.6601990  52.6418110
  79.6421530  72.3032420  54.0466620  82.1211870  71.5969180  54.5355160
  81.7733870  70.9193170  53.9557610  82.3224640  71.1358690  55.3498550
  84.2860910  86.5849930  56.1541760  85.1811700  86.9234900  56.1760520
  84.3178540  85.8629340  55.5266040  77.9257070  81.9576980  54.3828760
  78.3631940  82.5006650  55.0386340  78.4104800  81.1323930  54.3925100
  75.1402870  84.7466010  61.8349020  75.4705880  83.8787070  61.6027660
  75.5693870  84.9524530  62.6653980  79.7364790  83.0775020  59.4950990
  79.4360330  82.9539990  60.3954900  79.6302280  82.2183610  59.0866720
  75.6293080  85.6136600  64.5730650  75.1924070  85.7937400  65.4054800
  76.1970760  86.3711220  64.4312370  75.4617510  78.1256830  60.9319530
  74.8066350  77.8568470  60.2879230  76.2995460  78.0161310  60.4821510
  89.9506900  81.8405580  66.9584120  89.1366740  82.2702740  67.2209910
  90.3581100  82.4523990  66.3453170  88.4107950  72.9198120  55.1538020
  88.8292830  72.7329100  54.3134680  88.1044010  72.0677170  55.4640950
  76.4993440  78.5109400  65.4722870  76.8666480  78.4236800  66.3518890
  75.9304260  77.7475950  65.3729730  74.6755590  75.3355760  56.8744860
  73.7719670  75.5985960  56.6996520  75.1596210  75.6066930  56.0944820
  77.2182800  74.3921300  54.7839240  77.9274500  73.9704520  54.2986520
  76.5022740  74.4596530  54.1522590  76.8656960  70.4460630  53.8241890
  77.5885090  70.9869570  54.1423110  77.1381480  70.1724050  52.9483430
  76.5549150  69.6966820  63.7264510  77.2025340  69.1464200  63.2859670
  76.9750990  69.9509970  64.5480320  90.0082950  86.5924180  60.4852390
  90.6042020  86.2708750  59.8086810  90.2661100  86.1196000  61.2765660
  76.3081150  69.8522490  66.4689830  75.9595970  70.3086310  67.2348010
  75.9768850  68.9579620  66.5512260  81.6151550  84.5801680  66.2352740
  81.3742910  84.8476240  65.3483260  82.5554190  84.7507410  66.2903600
  87.1988570  69.2636570  65.9570830  86.3248410  69.5971680  65.7543760
  87.0899320  68.7909750  66.7822700  88.1060550  71.4707440  67.3412550
  87.7773910  70.6559200  66.9614280  89.0542850  71.4277250  67.2178240
  90.5595160  87.2419480  64.3150120  90.0998130  87.9935290  63.9408140
  89.9307620  86.5225950  64.2564920  77.3845780  83.3362720  66.7048840
  76.6579840  82.7168010  66.6374790  77.4454930  83.7303330  65.8346920
  80.9890880  85.5507720  63.4898250  81.5055900  84.9395080  62.9646510
  81.6388260  86.0536500  63.9809260  83.7286380  86.4416210  64.3167230
  84.0164190  86.1870510  63.4400240  84.2409600  85.8893570  64.9072800
  84.9463390  70.1806410  64.8963740  84.1635180  70.6551910  65.1760500
  84.6526320  69.2761240  64.7876920  89.4984460  70.8829510  62.9412830
  89.9392550  70.8274610  62.0934430  89.2292050  71.7987520  63.0123010
  75.6675780  86.6537110  59.9145600  75.4997820  86.0207790  60.6127490
  74.8010290  86.8596510  59.5639790  76.2903800  70.4853890  57.4177460
  77.0483160  70.5982770  56.8441490  75.8280970  71.3223090  57.3720890
  82.8317610  72.5993160  60.4079770  82.0192120  72.2250050  60.0675650
  83.3359250  71.8438240  60.7100960  87.3342590  69.2635610  61.6462840
  87.9371960  69.8355820  62.1211360  86.5935580  69.8275050  61.4236740
  90.4777190  69.6657170  56.9203120  90.6727820  70.5640620  57.1870550
  89.6907060  69.4344250  57.4136070  77.2738480  85.3470340  57.3595740
  76.7486100  85.7278370  56.6557700  77.1983060  85.9721110  58.0805450
  78.6628950  71.0117940  55.9579430  79.1921710  70.2247740  55.8287380
  79.2957270  71.6909130  56.1914960  80.8566790  70.7493080  59.0124820
  80.2269530  70.0480390  59.1794950  80.3171930  71.5097210  58.7957980
  79.8731450  87.2952720  56.2344990  80.6050270  87.0112000  55.6868880
  80.1325120  87.0566000  57.1244370  79.0346240  83.4117450  56.2391320
  78.4055120  83.8802550  56.7877150  79.1494070  82.5666670  56.6737510
  86.4895960  77.4623110  42.3892520  86.4090010  76.5477720  42.1184230
  86.0760380  77.9590180  41.6832230  84.6214000  79.2402130  44.2701790
  83.8456100  78.7602570  44.5600360  85.2726930  78.5607780  44.0957950
  78.6379830  79.5521940  45.1477550  77.8064710  79.2970650  45.5474060
  79.2460810  79.6232710  45.8835470  88.6421430  83.6462320  43.0500920
  88.1802960  82.8749560  43.3788090  89.4546980  83.6728390  43.5553370
  78.6181090  83.5862030  45.3435570  78.9209130  82.6959770  45.1645790
  79.3624680  84.1432250  45.1157820  77.0471780  74.5123830  38.9319940
  76.1588480  74.8539800  38.8299820  77.3312970  74.3124150  38.0400770
  75.0104790  77.1129480  44.8159640  75.5820900  76.3451680  44.8163280
  75.0106330  77.4118240  43.9066250  84.8684740  85.9320330  42.6704910
  84.2496180  86.3877830  42.0999350  85.7236520  86.0871790  42.2694610
  84.0622990  81.9159320  44.2771950  83.9931270  80.9749260  44.1161080
  84.8242850  82.0060730  44.8494520  76.2529660  72.5213840  46.6028570
  76.0732500  71.6239590  46.8831330  75.8509740  73.0685710  47.2775520
  85.0928160  74.7229700  44.5040880  85.4692980  73.8501580  44.3914550
  84.9947670  75.0588400  43.6131320  79.2233170  73.0955330  39.9658320
  79.3299920  73.9959060  40.2727080  78.3125530  73.0473300  39.6752970
  88.8752280  72.2180140  41.4369220  89.6961900  71.7276710  41.4794700
  88.9086360  72.8077800  42.1901060  76.8716330  75.0174340  45.2110910
  77.5526440  75.2812710  45.8298310  76.5564380  74.1775210  45.5448920
  81.0640900  76.0641700  44.2983500  81.5719120  76.5622670  44.9388520
  81.5954140  75.2876900  44.1222860  79.3477000  70.7040260  48.5646920
  79.3495440  71.2212650  47.7592820  78.5181310  70.2270440  48.5416850
  85.7348090  80.8159570  40.0636820  85.1165360  81.2809020  39.4999540
  86.2471340  81.5087050  40.4806330  80.5979850  80.3435440  46.7420420
  80.2649230  80.9704360  47.3841490  80.7746530  80.8697320  45.9622090
  89.1113760  74.1580520  44.2096760  88.4069330  74.4465410  44.7899870
  89.4725920  74.9680630  43.8496320  79.0292330  72.4150220  46.5717370
  79.3709140  73.2592270  46.2771240  78.0908140  72.5633960  46.6882710
  79.8098950  82.3116240  48.5569600  80.4272950  82.9867320  48.2754050
  78.9492070  82.7204220  48.4657100  75.1031290  81.5016100  37.4376450
  74.7259270  81.9903200  36.7061350  75.3604360  82.1741380  38.0682980
  82.7120220  69.9032490  42.8961960  83.0195200  69.3479380  42.1797460
  81.7820920  70.0376950  42.7134950  88.2635280  85.6199780  45.1869420
  88.2762440  85.2162070  44.3191680  87.7110500  86.3947070  45.0830850
  89.5580700  82.3416000  40.2759590  89.4477030  81.3990330  40.4009010
  89.5548950  82.7031640  41.1622350  87.6620720  80.5229620  46.5152030
  88.0789510  80.3089730  45.6805490  88.3860540  80.7802410  47.0860650
  85.1000980  77.9681320  39.6322080  84.1730260  77.9018700  39.8610550
  85.2525800  78.9061450  39.5177320  85.0870060  74.2398320  36.6289240
  84.1473730  74.4012280  36.7141700  85.4053320  74.9584000  36.0825230
  89.1298270  79.5301620  40.1357330  88.5110690  79.1921170  39.4883630
  89.1122720  78.8861380  40.8436520  88.5724830  75.7086160  47.5523140
  88.1596010  76.5339870  47.8063130  87.8400780  75.1231200  47.3599500
  80.7057620  78.4946060  42.4141810  80.3014620  77.7823310  41.9187710
  80.7920740  78.1499300  43.3029850  81.1739320  82.1813620  44.5781020
  80.8767610  81.5759090  43.8988800  82.1239140  82.2190930  44.4670380
  79.4186240  75.2689270  46.1940850  79.9700830  75.3784610  45.4194100
  79.9329750  75.6426870  46.9096080  89.2624930  85.7545490  48.2404120
  88.7855490  86.5617680  48.0476730  88.5786720  85.1023820  48.3930330
  80.2657750  81.9195310  51.2288820  79.3686280  82.1435280  51.4762220
  80.2910620  82.0430250  50.2800220  87.3062970  78.7688430  37.1430080
  87.7456250  77.9310860  36.9967900  88.0191390  79.4017830  37.2294220
  79.0928970  78.7908630  49.8046190  78.9536740  79.6631430  50.1733590
  78.2110330  78.4481440  49.6594130  85.4158350  83.7084500  41.1111320
  85.8554260  84.4508830  40.6966710  85.3545240  83.9511070  42.0350280
  80.8909320  84.7330330  52.0131340  80.8624750  85.1373280  51.1459770
  80.7274290  83.8040690  51.8502940  77.4062250  77.3891040  39.9148460
  77.2859850  78.1153130  39.3029730  77.0963140  76.6193950  39.4376370
  75.0447620  80.5606180  45.7217100  75.1228040  80.6954950  44.7772820
  75.6589300  79.8522070  45.9145220  76.2895250  82.2606370  42.1323280
  75.8823330  82.4020960  41.2776880  77.1808260  81.9766530  41.9294490
  86.1074130  86.4098280  49.0390330  86.6218800  86.3206290  49.8412760
  85.2643210  86.7557980  49.3318240  88.0828530  86.6953620  38.4674330
  87.9229670  86.4056560  39.3656160  87.9175240  85.9193750  37.9319560
  80.5616910  86.4752150  40.2445950  80.3859390  85.5587690  40.0313750
  79.7072650  86.8339440  40.4843750  87.7854660  84.2041180  37.0272330
  87.0919820  84.2018470  36.3674610  88.5277520  83.7800500  36.5966500
  87.3504590  85.8303890  41.1020820  87.8061540  85.0493270  41.4159440
  87.6897110  86.5410710  41.6462000  75.1007140  81.6020350  48.2611560
  75.2638180  81.1325710  47.4430930  75.5659590  81.0943910  48.9260400
  79.8725910  70.7326110  43.2972130  79.4294060  71.5135650  42.9656650
  80.4310900  71.0556000  44.0043070  84.1595720  73.5994630  48.9007450
  83.6975090  73.8077650  49.7127390  83.7573830  72.7853980  48.5978120
  89.1600230  74.8203580  50.0304110  88.3093820  74.5209330  50.3513180
  89.0002020  75.0645590  49.1187930  86.2549940  76.3205330  52.1302900
  86.5803350  75.4869080  51.7905130  87.0430270  76.8433850  52.2781230
  82.9884730  70.3536810  38.1777960  82.3638910  70.3496680  38.9031270
  82.9014850  69.4867770  37.7813930  81.9101810  71.2773440  45.1561730
  82.2074140  72.1836270  45.0753750  82.4587370  70.7892220  44.5421300
  79.6640130  75.8559680  41.0253380  79.4381050  75.6396850  41.9300000
  78.8832660  76.2888140  40.6799350  86.8937890  75.8623050  39.6244030
  86.2946780  76.5858850  39.4407650  87.4417500  75.7999830  38.8420480
  82.1039340  76.7545260  51.6913650  82.0082940  75.8139990  51.5414050
  82.9471320  76.9760330  51.2961720  85.5002760  74.4986590  41.6547310
  85.8932330  74.8158790  40.8416000  85.8619610  73.6198470  41.7691830
  77.2349880  73.1658930  49.8447430  76.8413270  74.0134140  50.0520210
  76.5468280  72.5285300  50.0356070  83.8094930  73.2493900  52.9144170
  83.1193250  73.0566100  53.5490260  84.5527230  73.5328540  53.4468470
  74.5366930  71.0887390  43.8777510  74.2479980  71.6590250  44.5902490
  75.2812690  70.6091840  44.2408740  74.7237160  75.0307510  35.0880230
  74.6411830  75.9738270  35.2295220  74.3720220  74.8882420  34.2092580
  86.0857900  77.0892340  45.7498090  85.3539020  77.5979150  46.0988190
  85.6882240  76.2722320  45.4486870  82.5235290  73.7646540  44.1550580
  82.5271350  73.3236490  43.3055120  83.4186410  74.0863870  44.2622400
  78.3737670  73.6473030  43.1144790  78.0337720  74.1248260  43.8711840
  77.6114990  73.1938150  42.7545890  82.5855440  74.7658620  37.1457340
  82.7068260  74.7245100  38.0943160  82.2003950  75.6282770  36.9904070
  86.5483810  72.5426020  45.1621030  86.5656550  72.9934670  46.0062880
  86.2999390  71.6431660  45.3754470  81.5976940  77.0759760  36.5440640
  81.0293840  76.6278010  35.9176550  82.3065940  77.4352540  36.0105790
  89.9754560  69.9558200  51.0007410  90.3000330  69.2247860  51.5265390
  90.0111070  69.6371840  50.0988400  76.6746120  80.9771780  50.4207370
  76.2900910  80.3365450  51.0190330  76.9858310  81.6807900  50.9902100
  82.8243260  77.8248320  45.9015990  83.1913390  77.3506890  46.6477330
  82.6348320  78.6989890  46.2424330  75.6883750  72.5692010  42.0309460
  75.4030670  72.2047680  42.8688080  75.6262610  71.8372470  41.4172600
  80.6142630  76.8656960  48.2200200  80.3099700  77.7448940  48.4450560
  81.5689090  76.9256750  48.2557640  79.1424420  81.0717950  38.8167050
  78.3686680  80.5315570  38.6565770  79.8719050  80.5524560  38.4784810
  89.9012400  80.0683310  44.6093440  90.6211520  80.5638600  44.2189550
  89.6994220  79.3901200  43.9647310  85.3622340  71.4621270  38.7522830
  84.5486950  70.9634440  38.6768140  85.1684290  72.3019520  38.3359180
  85.2831200  80.1392370  50.4962440  85.2168510  79.2188040  50.2420030
  84.6536340  80.2367810  51.2107080  88.0770730  75.8340920  37.0484990
  88.9650350  76.1458150  36.8736330  88.0475820  74.9613170  36.6565570
  79.1861820  80.7398330  42.4545860  79.7040490  79.9366590  42.4002750
  78.7345840  80.6777470  43.2962690  84.0731320  82.0064610  37.7273160
  84.4147020  82.7506840  37.2316480  83.2444030  82.3195730  38.0897990
  76.6706360  77.7059700  49.3671560  76.3121300  78.3713550  49.9544900
  76.3760920  76.8743250  49.7384180  79.8719480  78.1643940  52.2511110
  79.5719620  78.3101120  51.3538930  80.6430720  77.6049230  52.1584500
  85.2147930  82.9612940  50.2466240  85.2292470  82.0293900  50.0285150
  84.5073030  83.0472700  50.8856010  86.9558730  81.3280450  43.0918670
  87.3082550  80.7308580  42.4320040  86.0721060  81.0024680  43.2626920
  83.0422010  82.0878140  40.4989080  83.7293140  82.6347350  40.8796670
  82.2554430  82.6318870  40.5338690  75.1814410  77.7050960  35.9906160
  76.0509260  77.9875760  36.2742080  74.6904730  78.5186830  35.8754970
  82.3449220  79.0924170  40.1114440  82.8012000  79.9029420  40.3374630
  81.9937430  78.7747310  40.9432930  84.6481830  84.6030510  47.3406740
  85.2924050  84.8089890  48.0180160  85.0111270  83.8418910  46.8877590
  78.2461000  69.4361820  40.5836960  78.1175630  69.4279720  41.5321880
  77.4223020  69.7744910  40.2327970  85.9213910  82.6062860  46.0584190
  86.5636140  81.9056020  46.1716360  86.4463260  83.3861300  45.8781080
  89.7669630  82.8911480  35.7823330  89.5407210  82.1741920  36.3747970
  89.3765830  82.6423920  34.9445080  87.6951530  83.4057760  49.2620250
  88.0307770  83.9924450  49.9398170  86.7751870  83.2750470  49.4918040
  75.5485660  86.9178340  36.5567790  75.9083300  87.5167680  35.9025060
  75.4078000  87.4638230  37.3302820  75.2454930  71.1952940  50.0443660
  74.5313450  71.3949860  50.6496270  75.6649970  70.4192510  50.4158460
  89.3485880  80.8083420  37.4437490  89.0607580  81.2696110  38.2315370
  90.1438050  80.3481190  37.7121710  75.5327520  85.1833200  51.0310190
  75.6418640  84.2427940  50.8905580  74.8808080  85.4487950  50.3823920
  83.5240110  83.4549090  52.4308310  83.2036980  82.7358330  52.9754000
  82.8498470  84.1304160  52.5044370  81.5654280  84.3009540  37.3741460
  81.5564380  85.0339230  36.7585970  80.6452640  84.0541120  37.4668420
  77.1660920  79.5224430  38.1188220  76.5588870  80.2623330  38.1283520
  77.6410270  79.6123790  37.2926420  86.7393710  73.6875250  47.7945110
  87.1074530  72.8670460  48.1224680  85.8791910  73.7477140  48.2100760
  90.1055740  72.6432190  38.6032670  89.4768900  72.7477860  37.8890900
  89.6107660  72.8628970  39.3926550  84.5513880  84.3637780  36.0366650
  84.6525860  84.1601770  35.1068630  83.6515620  84.1096060  36.2414430
  82.0739770  74.9218140  40.0190550  81.3655920  75.3904480  40.4604160
  82.3584250  74.2640150  40.6535740  83.6995700  76.3414840  48.0183080
  84.1980950  76.8160660  48.6834930  83.8418650  75.4178360  48.2253110
  86.1055200  71.6468800  41.4586340  85.9822980  71.6654930  40.5095850
  87.0539760  71.6947740  41.5784740  83.1931990  86.8824100  40.7314320
  83.4473490  86.8445490  39.8093690  82.2444470  86.7557430  40.7242570
  80.2774790  73.2303220  37.3941260  81.1265320  73.6673370  37.3281450
  79.9106060  73.5423480  38.2213320  89.1984570  77.8015980  42.3072830
  88.2574710  77.8166210  42.4820520  89.5128640  77.0151940  42.7533130
  79.1766210  79.4835580  35.8676790  79.9429480  79.3716940  36.4302220
  79.2540900  78.7873550  35.2153560  77.8712970  76.9160650  36.5509680
  77.9516560  75.9688160  36.6627080  78.7632720  77.2467530  36.6570340
  78.6727680  87.0656040  43.6544220  79.4090160  86.5171500  43.9252790
  79.0568600  87.9312050  43.5150210  75.5573160  83.1329610  39.5285730
  74.6312940  83.3750750  39.5191140  76.0229590  83.9603870  39.4070480
  77.6785960  86.2502110  52.8429800  78.4798690  86.5714160  53.2565200
  77.1637780  85.8897690  53.5649710  81.7829990  86.2386350  35.4769790
  82.5758600  86.5275180  35.0251580  81.2634340  85.8078520  34.7982270
  86.5150590  82.3581980  52.7905210  85.9088750  82.3813580  52.0500960
  86.2104700  81.6265020  53.3272460  87.9450960  86.0862270  51.4014620
  88.8972710  86.0020290  51.3514860  87.7979180  86.7503980  52.0748410
  75.3983770  78.7375570  51.7865850  75.9022790  78.1582850  52.3582080
  74.6591190  79.0215800  52.3242220  82.3007390  81.4589760  35.3412140
  82.1958030  80.8442110  36.0673520  82.1331610  80.9355650  34.5575150
  82.4521710  80.1446560  51.3201370  81.6867380  80.7131560  51.2356040
  82.6337670  79.8522770  50.4269600  85.5410120  80.5209790  35.9454130
  84.9920220  80.9679090  36.5896870  86.1629380  80.0159040  36.4691800
  89.5945060  81.8751890  51.8776390  90.3354530  82.2127650  51.3743850
  88.8317740  82.0443950  51.3246160  77.4306850  76.8805160  52.6815920
  77.4712190  76.5819030  53.5901150  78.2852350  77.2812770  52.5223440
  81.2085240  79.4800710  37.8419430  81.6301660  79.3140580  38.6850820
  81.3336080  78.6700940  37.3474570  79.3712660  75.4597260  50.6490410
  78.8409120  74.9688210  50.0213750  80.0400730  75.8881460  50.1148340
  83.7212880  78.5038320  35.0896530  84.2418540  77.7887340  34.7237680
  84.3681280  79.1424190  35.3897040  88.2690720  79.9266720  50.4131600
  88.6831740  80.0811800  51.2622020  87.3341720  80.0521940  50.5757380
  88.7412890  77.2662880  52.4170750  89.3233660  76.5115200  52.3291230
  88.9174660  77.7970320  51.6402230  79.8584960  72.4259630  50.7287700
  79.7641830  71.8080380  50.0038570  79.2782350  73.1525920  50.5017610
  82.6246400  70.9832870  47.7615090  82.1763700  71.0057130  46.9160640
  81.9911600  70.5851890  48.3585390  83.0305950  79.8787200  48.3827530
  83.4494060  80.7219930  48.2103770  82.1114580  80.0159240  48.1534310
  85.3669850  77.6103380  49.7665370  85.4866060  77.0144520  50.5060210
  86.2263850  77.6473070  49.3466670  87.7057750  78.1640570  48.3427880
  87.1792970  78.6883190  47.7393020  88.0489090  78.7967960  48.9737610
  80.1044140  75.5533940  34.7877590  79.9033200  74.6901300  35.1490930
  79.9336190  75.4667300  33.8499190  80.8813370  86.1840210  49.4985260
  80.3434460  86.9086270  49.1793960  81.1347330  85.7070550  48.7082600
  82.1338620  74.1524730  51.0241190  82.7238310  73.8440580  51.7119010
  81.3158860  73.6804480  51.1801090  86.9532050  73.7690540  51.2574210
  86.2647570  73.1072080  51.1924200  87.6738070  73.3228810  51.7022670
  87.5832450  70.3642170  37.3164470  87.8634740  69.5210070  37.6723890
  86.8098180  70.5965280  37.8303220  78.9026940  72.6534560  34.7755470
  79.2052840  72.6601990  33.8674620  79.6421530  72.3032420  35.2723130
  83.7375580  87.4191420  49.7571910  83.6634280  88.3226560  50.0644280
  82.8354420  87.1003320  49.7293980  82.1211870  71.5969180  35.7611670
  81.7733870  70.9193170  35.1814120  82.3224640  71.1358690  36.5755060
  84.2860910  86.5849930  37.3798270  85.1811700  86.9234900  37.4017030
  84.3178540  85.8629340  36.7522550  77.9257070  81.9576980  35.6085270
  78.3631940  82.5006650  36.2642850  78.4104800  81.1323930  35.6181610
  75.1402870  84.7466010  43.0605530  75.4705880  83.8787070  42.8284170
  75.5693870  84.9524530  43.8910490  79.7364790  83.0775020  40.7207500
  79.4360330  82.9539990  41.6211410  79.6302280  82.2183610  40.3123230
  75.6293080  85.6136600  45.7987160  75.1924070  85.7937400  46.6311310
  76.1970760  86.3711220  45.6568880  75.4617510  78.1256830  42.1576040
  74.8066350  77.8568470  41.5135740  76.2995460  78.0161310  41.7078020
  89.9506900  81.8405580  48.1840630  89.1366740  82.2702740  48.4466420
  90.3581100  82.4523990  47.5709680  88.4107950  72.9198120  36.3794530
  88.8292830  72.7329100  35.5391190  88.1044010  72.0677170  36.6897460
  76.4993440  78.5109400  46.6979380  76.8666480  78.4236800  47.5775400
  75.9304260  77.7475950  46.5986240  76.0509440  75.4218490  50.6037800
  75.1565490  75.3885250  50.9431510  76.5906990  75.6205280  51.3689050
  89.7385370  72.2050210  52.4889550  90.6155550  72.2133610  52.8723550
  89.7506210  71.4681050  51.8781900  74.6755590  75.3355760  38.1001370
  73.7719670  75.5985960  37.9253030  75.1596210  75.6066930  37.3201330
  77.2182800  74.3921300  36.0095750  77.9274500  73.9704520  35.5243030
  76.5022740  74.4596530  35.3779100  76.8656960  70.4460630  35.0498400
  77.5885090  70.9869570  35.3679620  77.1381480  70.1724050  34.1739940
  76.5549150  69.6966820  44.9521020  77.2025340  69.1464200  44.5116180
  76.9750990  69.9509970  45.7736830  90.0082950  86.5924180  41.7108900
  90.6042020  86.2708750  41.0343320  90.2661100  86.1196000  42.5022170
  76.3081150  69.8522490  47.6946340  75.9595970  70.3086310  48.4604520
  75.9768850  68.9579620  47.7768770  77.9145520  83.0242090  51.8599530
  77.8715150  82.6535000  52.7413990  78.0456530  83.9619660  52.0001350
  81.6151550  84.5801680  47.4609250  81.3742910  84.8476240  46.5739770
  82.5554190  84.7507410  47.5160110  83.8205970  71.0434370  51.2165760
  83.7594860  71.6356200  51.9661170  84.7606350  70.9360330  51.0716020
  86.4580530  70.7004430  50.8558050  87.0720940  71.0183720  50.1939130
  87.0030090  70.2153020  51.4753910  76.9801790  69.3798690  50.9697110
  77.5284780  69.1986740  50.2063220  77.0457100  68.5892800  51.5053420
  77.7533550  85.9704340  48.9797310  77.1593870  85.8389040  49.7187350
  77.7457390  85.1342480  48.5139410  87.1988570  69.2636570  47.1827340
  86.3248410  69.5971680  46.9800270  87.0899320  68.7909750  48.0079210
  88.1060550  71.4707440  48.5669060  87.7773910  70.6559200  48.1870790
  89.0542850  71.4277250  48.4434750  90.5595160  87.2419480  45.5406630
  90.0998130  87.9935290  45.1664650  89.9307620  86.5225950  45.4821430
  77.3845780  83.3362720  47.9305350  76.6579840  82.7168010  47.8631300
  77.4454930  83.7303330  47.0603430  80.9890880  85.5507720  44.7154760
  81.5055900  84.9395080  44.1903020  81.6388260  86.0536500  45.2065770
  83.7286380  86.4416210  45.5423740  84.0164190  86.1870510  44.6656750
  84.2409600  85.8893570  46.1329310  84.9463390  70.1806410  46.1220250
  84.1635180  70.6551910  46.4017010  84.6526320  69.2761240  46.0133430
  89.4984460  70.8829510  44.1669340  89.9392550  70.8274610  43.3190940
  89.2292050  71.7987520  44.2379520  75.6675780  86.6537110  41.1402110
  75.4997820  86.0207790  41.8384000  74.8010290  86.8596510  40.7896300
  76.2903800  70.4853890  38.6433970  77.0483160  70.5982770  38.0698000
  75.8280970  71.3223090  38.5977400  82.8317610  72.5993160  41.6336280
  82.0192120  72.2250050  41.2932160  83.3359250  71.8438240  41.9357470
  87.3342590  69.2635610  42.8719350  87.9371960  69.8355820  43.3467870
  86.5935580  69.8275050  42.6493250  90.4777190  69.6657170  38.1459630
  90.6727820  70.5640620  38.4127060  89.6907060  69.4344250  38.6392580
  77.2738480  85.3470340  38.5852250  76.7486100  85.7278370  37.8814210
  77.1983060  85.9721110  39.3061960  78.6628950  71.0117940  37.1835940
  79.1921710  70.2247740  37.0543890  79.2957270  71.6909130  37.4171470
  80.8566790  70.7493080  40.2381330  80.2269530  70.0480390  40.4051460
  80.3171930  71.5097210  40.0214490  83.7958740  87.3632310  52.9091940
  84.7226050  87.1276580  52.9527900  83.7809170  88.1904310  52.4277970
  80.9822350  70.0277060  52.6733820  80.7006620  70.5310660  51.9094640
  81.3642050  69.2298810  52.3075950  79.8731450  87.2952720  37.4601500
  80.6050270  87.0112000  36.9125390  80.1325120  87.0566000  38.3500880
  79.0346240  83.4117450  37.4647830  78.4055120  83.8802550  38.0133660
  79.1494070  82.5666670  37.8994020  87.5837810  69.4430640  53.2514290
  87.4703260  69.7625250  54.1465810  88.4007550  69.8443150  52.9551570
  86.4895960  77.4623110  23.6149030  86.4090010  76.5477720  23.3440740
  86.0760380  77.9590180  22.9088740  84.6214000  79.2402130  25.4958300
  83.8456100  78.7602570  25.7856870  85.2726930  78.5607780  25.3214460
  78.6379830  79.5521940  26.3734060  77.8064710  79.2970650  26.7730570
  79.2460810  79.6232710  27.1091980  88.6421430  83.6462320  24.2757430
  88.1802960  82.8749560  24.6044600  89.4546980  83.6728390  24.7809880
  78.6181090  83.5862030  26.5692080  78.9209130  82.6959770  26.3902300
  79.3624680  84.1432250  26.3414330  77.0471780  74.5123830  20.1576450
  76.1588480  74.8539800  20.0556330  77.3312970  74.3124150  19.2657280
  75.0104790  77.1129480  26.0416150  75.5820900  76.3451680  26.0419790
  75.0106330  77.4118240  25.1322760  84.8684740  85.9320330  23.8961420
  84.2496180  86.3877830  23.3255860  85.7236520  86.0871790  23.4951120
  84.0622990  81.9159320  25.5028460  83.9931270  80.9749260  25.3417590
  84.8242850  82.0060730  26.0751030  76.2529660  72.5213840  27.8285080
  76.0732500  71.6239590  28.1087840  75.8509740  73.0685710  28.5032030
  85.0928160  74.7229700  25.7297390  85.4692980  73.8501580  25.6171060
  84.9947670  75.0588400  24.8387830  79.2233170  73.0955330  21.1914830
  79.3299920  73.9959060  21.4983590  78.3125530  73.0473300  20.9009480
  88.8752280  72.2180140  22.6625730  89.6961900  71.7276710  22.7051210
  88.9086360  72.8077800  23.4157570  76.8716330  75.0174340  26.4367420
  77.5526440  75.2812710  27.0554820  76.5564380  74.1775210  26.7705430
  81.0640900  76.0641700  25.5240010  81.5719120  76.5622670  26.1645030
  81.5954140  75.2876900  25.3479370  79.3477000  70.7040260  29.7903430
  79.3495440  71.2212650  28.9849330  78.5181310  70.2270440  29.7673360
  85.7348090  80.8159570  21.2893330  85.1165360  81.2809020  20.7256050
  86.2471340  81.5087050  21.7062840  80.5979850  80.3435440  27.9676930
  80.2649230  80.9704360  28.6098000  80.7746530  80.8697320  27.1878600
  89.1113760  74.1580520  25.4353270  88.4069330  74.4465410  26.0156380
  89.4725920  74.9680630  25.0752830  79.0292330  72.4150220  27.7973880
  79.3709140  73.2592270  27.5027750  78.0908140  72.5633960  27.9139220
  79.8098950  82.3116240  29.7826110  80.4272950  82.9867320  29.5010560
  78.9492070  82.7204220  29.6913610  75.1031290  81.5016100  18.6632960
  74.7259270  81.9903200  17.9317860  75.3604360  82.1741380  19.2939490
  82.7120220  69.9032490  24.1218470  83.0195200  69.3479380  23.4053970
  81.7820920  70.0376950  23.9391460  88.2635280  85.6199780  26.4125930
  88.2762440  85.2162070  25.5448190  87.7110500  86.3947070  26.3087360
  89.5580700  82.3416000  21.5016100  89.4477030  81.3990330  21.6265520
  89.5548950  82.7031640  22.3878860  87.6620720  80.5229620  27.7408540
  88.0789510  80.3089730  26.9062000  88.3860540  80.7802410  28.3117160
  85.1000980  77.9681320  20.8578590  84.1730260  77.9018700  21.0867060
  85.2525800  78.9061450  20.7433830  85.0870060  74.2398320  17.8545750
  84.1473730  74.4012280  17.9398210  85.4053320  74.9584000  17.3081740
  89.1298270  79.5301620  21.3613840  88.5110690  79.1921170  20.7140140
  89.1122720  78.8861380  22.0693030  88.5724830  75.7086160  28.7779650
  88.1596010  76.5339870  29.0319640  87.8400780  75.1231200  28.5856010
  80.7057620  78.4946060  23.6398320  80.3014620  77.7823310  23.1444220
  80.7920740  78.1499300  24.5286360  81.1739320  82.1813620  25.8037530
  80.8767610  81.5759090  25.1245310  82.1239140  82.2190930  25.6926890
  79.4186240  75.2689270  27.4197360  79.9700830  75.3784610  26.6450610
  79.9329750  75.6426870  28.1352590  89.2624930  85.7545490  29.4660630
  88.7855490  86.5617680  29.2733240  88.5786720  85.1023820  29.6186840
  80.2657750  81.9195310  32.4545330  79.3686280  82.1435280  32.7018730
  80.2910620  82.0430250  31.5056730  87.3062970  78.7688430  18.3686590
  87.7456250  77.9310860  18.2224410  88.0191390  79.4017830  18.4550730
  79.0928970  78.7908630  31.0302700  78.9536740  79.6631430  31.3990100
  78.2110330  78.4481440  30.8850640  85.4158350  83.7084500  22.3367830
  85.8554260  84.4508830  21.9223220  85.3545240  83.9511070  23.2606790
  80.8909320  84.7330330  33.2387850  80.8624750  85.1373280  32.3716280
  80.7274290  83.8040690  33.0759450  77.4062250  77.3891040  21.1404970
  77.2859850  78.1153130  20.5286240  77.0963140  76.6193950  20.6632880
  75.0447620  80.5606180  26.9473610  75.1228040  80.6954950  26.0029330
  75.6589300  79.8522070  27.1401730  76.2895250  82.2606370  23.3579790
  75.8823330  82.4020960  22.5033390  77.1808260  81.9766530  23.1551000
  86.1074130  86.4098280  30.2646840  86.6218800  86.3206290  31.0669270
  85.2643210  86.7557980  30.5574750  88.0828530  86.6953620  19.6930840
  87.9229670  86.4056560  20.5912670  87.9175240  85.9193750  19.1576070
  80.5616910  86.4752150  21.4702460  80.3859390  85.5587690  21.2570260
  79.7072650  86.8339440  21.7100260  87.7854660  84.2041180  18.2528840
  87.0919820  84.2018470  17.5931120  88.5277520  83.7800500  17.8223010
  87.3504590  85.8303890  22.3277330  87.8061540  85.0493270  22.6415950
  87.6897110  86.5410710  22.8718510  75.1007140  81.6020350  29.4868070
  75.2638180  81.1325710  28.6687440  75.5659590  81.0943910  30.1516910
  79.8725910  70.7326110  24.5228640  79.4294060  71.5135650  24.1913160
  80.4310900  71.0556000  25.2299580  84.1595720  73.5994630  30.1263960
  83.6975090  73.8077650  30.9383900  83.7573830  72.7853980  29.8234630
  89.1600230  74.8203580  31.2560620  88.3093820  74.5209330  31.5769690
  89.0002020  75.0645590  30.3444440  86.2549940  76.3205330  33.3559410
  86.5803350  75.4869080  33.0161640  87.0430270  76.8433850  33.5037740
  82.9884730  70.3536810  19.4034470  82.3638910  70.3496680  20.1287780
  82.9014850  69.4867770  19.0070440  81.9101810  71.2773440  26.3818240
  82.2074140  72.1836270  26.3010260  82.4587370  70.7892220  25.7677810
  79.6640130  75.8559680  22.2509890  79.4381050  75.6396850  23.1556510
  78.8832660  76.2888140  21.9055860  86.8937890  75.8623050  20.8500540
  86.2946780  76.5858850  20.6664160  87.4417500  75.7999830  20.0676990
  82.1039340  76.7545260  32.9170160  82.0082940  75.8139990  32.7670560
  82.9471320  76.9760330  32.5218230  85.5002760  74.4986590  22.8803820
  85.8932330  74.8158790  22.0672510  85.8619610  73.6198470  22.9948340
  77.2349880  73.1658930  31.0703940  76.8413270  74.0134140  31.2776720
  76.5468280  72.5285300  31.2612580  83.8094930  73.2493900  34.1400680
  83.1193250  73.0566100  34.7746770  84.5527230  73.5328540  34.6724980
  74.5366930  71.0887390  25.1034020  74.2479980  71.6590250  25.8159000
  75.2812690  70.6091840  25.4665250  74.7237160  75.0307510  16.3136740
  74.6411830  75.9738270  16.4551730  74.3720220  74.8882420  15.4349090
  86.0857900  77.0892340  26.9754600  85.3539020  77.5979150  27.3244700
  85.6882240  76.2722320  26.6743380  82.5235290  73.7646540  25.3807090
  82.5271350  73.3236490  24.5311630  83.4186410  74.0863870  25.4878910
  78.3737670  73.6473030  24.3401300  78.0337720  74.1248260  25.0968350
  77.6114990  73.1938150  23.9802400  82.5855440  74.7658620  18.3713850
  82.7068260  74.7245100  19.3199670  82.2003950  75.6282770  18.2160580
  86.5483810  72.5426020  26.3877540  86.5656550  72.9934670  27.2319390
  86.2999390  71.6431660  26.6010980  81.5976940  77.0759760  17.7697150
  81.0293840  76.6278010  17.1433060  82.3065940  77.4352540  17.2362300
  89.9754560  69.9558200  32.2263920  90.3000330  69.2247860  32.7521900
  90.0111070  69.6371840  31.3244910  76.6746120  80.9771780  31.6463880
  76.2900910  80.3365450  32.2446840  76.9858310  81.6807900  32.2158610
  82.8243260  77.8248320  27.1272500  83.1913390  77.3506890  27.8733840
  82.6348320  78.6989890  27.4680840  75.6883750  72.5692010  23.2565970
  75.4030670  72.2047680  24.0944590  75.6262610  71.8372470  22.6429110
  80.6142630  76.8656960  29.4456710  80.3099700  77.7448940  29.6707070
  81.5689090  76.9256750  29.4814150  79.1424420  81.0717950  20.0423560
  78.3686680  80.5315570  19.8822280  79.8719050  80.5524560  19.7041320
  89.9012400  80.0683310  25.8349950  90.6211520  80.5638600  25.4446060
  89.6994220  79.3901200  25.1903820  85.3622340  71.4621270  19.9779340
  84.5486950  70.9634440  19.9024650  85.1684290  72.3019520  19.5615690
  85.2831200  80.1392370  31.7218950  85.2168510  79.2188040  31.4676540
  84.6536340  80.2367810  32.4363590  88.0770730  75.8340920  18.2741500
  88.9650350  76.1458150  18.0992840  88.0475820  74.9613170  17.8822080
  79.1861820  80.7398330  23.6802370  79.7040490  79.9366590  23.6259260
  78.7345840  80.6777470  24.5219200  84.0731320  82.0064610  18.9529670
  84.4147020  82.7506840  18.4572990  83.2444030  82.3195730  19.3154500
  76.6706360  77.7059700  30.5928070  76.3121300  78.3713550  31.1801410
  76.3760920  76.8743250  30.9640690  79.8719480  78.1643940  33.4767620
  79.5719620  78.3101120  32.5795440  80.6430720  77.6049230  33.3841010
  85.2147930  82.9612940  31.4722750  85.2292470  82.0293900  31.2541660
  84.5073030  83.0472700  32.1112520  86.9558730  81.3280450  24.3175180
  87.3082550  80.7308580  23.6576550  86.0721060  81.0024680  24.4883430
  83.0422010  82.0878140  21.7245590  83.7293140  82.6347350  22.1053180
  82.2554430  82.6318870  21.7595200  75.1814410  77.7050960  17.2162670
  76.0509260  77.9875760  17.4998590  74.6904730  78.5186830  17.1011480
  82.3449220  79.0924170  21.3370950  82.8012000  79.9029420  21.5631140
  81.9937430  78.7747310  22.1689440  84.6481830  84.6030510  28.5663250
  85.2924050  84.8089890  29.2436670  85.0111270  83.8418910  28.1134100
  78.2461000  69.4361820  21.8093470  78.1175630  69.4279720  22.7578390
  77.4223020  69.7744910  21.4584480  85.9213910  82.6062860  27.2840700
  86.5636140  81.9056020  27.3972870  86.4463260  83.3861300  27.1037590
  89.7669630  82.8911480  17.0079840  89.5407210  82.1741920  17.6004480
  89.3765830  82.6423920  16.1701590  87.6951530  83.4057760  30.4876760
  88.0307770  83.9924450  31.1654680  86.7751870  83.2750470  30.7174550
  75.5485660  86.9178340  17.7824300  75.9083300  87.5167680  17.1281570
  75.4078000  87.4638230  18.5559330  75.2454930  71.1952940  31.2700170
  74.5313450  71.3949860  31.8752780  75.6649970  70.4192510  31.6414970
  89.3485880  80.8083420  18.6694000  89.0607580  81.2696110  19.4571880
  90.1438050  80.3481190  18.9378220  75.5327520  85.1833200  32.2566700
  75.6418640  84.2427940  32.1162090  74.8808080  85.4487950  31.6080430
  83.5240110  83.4549090  33.6564820  83.2036980  82.7358330  34.2010510
  82.8498470  84.1304160  33.7300880  81.5654280  84.3009540  18.5997970
  81.5564380  85.0339230  17.9842480  80.6452640  84.0541120  18.6924930
  77.1660920  79.5224430  19.3444730  76.5588870  80.2623330  19.3540030
  77.6410270  79.6123790  18.5182930  86.7393710  73.6875250  29.0201620
  87.1074530  72.8670460  29.3481190  85.8791910  73.7477140  29.4357270
  90.1055740  72.6432190  19.8289180  89.4768900  72.7477860  19.1147410
  89.6107660  72.8628970  20.6183060  84.5513880  84.3637780  17.2623160
  84.6525860  84.1601770  16.3325140  83.6515620  84.1096060  17.4670940
  82.0739770  74.9218140  21.2447060  81.3655920  75.3904480  21.6860670
  82.3584250  74.2640150  21.8792250  83.6995700  76.3414840  29.2439590
  84.1980950  76.8160660  29.9091440  83.8418650  75.4178360  29.4509620
  86.1055200  71.6468800  22.6842850  85.9822980  71.6654930  21.7352360
  87.0539760  71.6947740  22.8041250  83.1931990  86.8824100  21.9570830
  83.4473490  86.8445490  21.0350200  82.2444470  86.7557430  21.9499080
  80.2774790  73.2303220  18.6197770  81.1265320  73.6673370  18.5537960
  79.9106060  73.5423480  19.4469830  89.1984570  77.8015980  23.5329340
  88.2574710  77.8166210  23.7077030  89.5128640  77.0151940  23.9789640
  79.1766210  79.4835580  17.0933300  79.9429480  79.3716940  17.6558730
  79.2540900  78.7873550  16.4410070  77.8712970  76.9160650  17.7766190
  77.9516560  75.9688160  17.8883590  78.7632720  77.2467530  17.8826850
  78.6727680  87.0656040  24.8800730  79.4090160  86.5171500  25.1509300
  79.0568600  87.9312050  24.7406720  75.5573160  83.1329610  20.7542240
  74.6312940  83.3750750  20.7447650  76.0229590  83.9603870  20.6326990
  77.6785960  86.2502110  34.0686310  78.4798690  86.5714160  34.4821710
  77.1637780  85.8897690  34.7906220  81.7829990  86.2386350  16.7026300
  82.5758600  86.5275180  16.2508090  81.2634340  85.8078520  16.0238780
  86.5150590  82.3581980  34.0161720  85.9088750  82.3813580  33.2757470
  86.2104700  81.6265020  34.5528970  87.9450960  86.0862270  32.6271130
  88.8972710  86.0020290  32.5771370  87.7979180  86.7503980  33.3004920
  75.3983770  78.7375570  33.0122360  75.9022790  78.1582850  33.5838590
  74.6591190  79.0215800  33.5498730  82.3007390  81.4589760  16.5668650
  82.1958030  80.8442110  17.2930030  82.1331610  80.9355650  15.7831660
  82.4521710  80.1446560  32.5457880  81.6867380  80.7131560  32.4612550
  82.6337670  79.8522770  31.6526110  85.5410120  80.5209790  17.1710640
  84.9920220  80.9679090  17.8153380  86.1629380  80.0159040  17.6948310
  89.5945060  81.8751890  33.1032900  90.3354530  82.2127650  32.6000360
  88.8317740  82.0443950  32.5502670  77.4306850  76.8805160  33.9072430
  77.4712190  76.5819030  34.8157660  78.2852350  77.2812770  33.7479950
  81.2085240  79.4800710  19.0675940  81.6301660  79.3140580  19.9107330
  81.3336080  78.6700940  18.5731080  79.3712660  75.4597260  31.8746920
  78.8409120  74.9688210  31.2470260  80.0400730  75.8881460  31.3404850
  83.7212880  78.5038320  16.3153040  84.2418540  77.7887340  15.9494190
  84.3681280  79.1424190  16.6153550  88.2690720  79.9266720  31.6388110
  88.6831740  80.0811800  32.4878530  87.3341720  80.0521940  31.8013890
  88.7412890  77.2662880  33.6427260  89.3233660  76.5115200  33.5547740
  88.9174660  77.7970320  32.8658740  79.8584960  72.4259630  31.9544210
  79.7641830  71.8080380  31.2295080  79.2782350  73.1525920  31.7274120
  82.6246400  70.9832870  28.9871600  82.1763700  71.0057130  28.1417150
  81.9911600  70.5851890  29.5841900  83.0305950  79.8787200  29.6084040
  83.4494060  80.7219930  29.4360280  82.1114580  80.0159240  29.3790820
  85.3669850  77.6103380  30.9921880  85.4866060  77.0144520  31.7316720
  86.2263850  77.6473070  30.5723180  87.7057750  78.1640570  29.5684390
  87.1792970  78.6883190  28.9649530  88.0489090  78.7967960  30.1994120
  80.1044140  75.5533940  16.0134100  79.9033200  74.6901300  16.3747440
  79.9336190  75.4667300  15.0755700  80.8813370  86.1840210  30.7241770
  80.3434460  86.9086270  30.4050470  81.1347330  85.7070550  29.9339110
  82.1338620  74.1524730  32.2497700  82.7238310  73.8440580  32.9375520
  81.3158860  73.6804480  32.4057600  86.9532050  73.7690540  32.4830720
  86.2647570  73.1072080  32.4180710  87.6738070  73.3228810  32.9279180
  87.5832450  70.3642170  18.5420980  87.8634740  69.5210070  18.8980400
  86.8098180  70.5965280  19.0559730  78.9026940  72.6534560  16.0011980
  79.2052840  72.6601990  15.0931130  79.6421530  72.3032420  16.4979640
  83.7375580  87.4191420  30.9828420  83.6634280  88.3226560  31.2900790
  82.8354420  87.1003320  30.9550490  82.1211870  71.5969180  16.9868180
  81.7733870  70.9193170  16.4070630  82.3224640  71.1358690  17.8011570
  84.2860910  86.5849930  18.6054780  85.1811700  86.9234900  18.6273540
  84.3178540  85.8629340  17.9779060  77.9257070  81.9576980  16.8341780
  78.3631940  82.5006650  17.4899360  78.4104800  81.1323930  16.8438120
  75.1402870  84.7466010  24.2862040  75.4705880  83.8787070  24.0540680
  75.5693870  84.9524530  25.1167000  79.7364790  83.0775020  21.9464010
  79.4360330  82.9539990  22.8467920  79.6302280  82.2183610  21.5379740
  75.6293080  85.6136600  27.0243670  75.1924070  85.7937400  27.8567820
  76.1970760  86.3711220  26.8825390  75.4617510  78.1256830  23.3832550
  74.8066350  77.8568470  22.7392250  76.2995460  78.0161310  22.9334530
  89.9506900  81.8405580  29.4097140  89.1366740  82.2702740  29.6722930
  90.3581100  82.4523990  28.7966190  88.4107950  72.9198120  17.6051040
  88.8292830  72.7329100  16.7647700  88.1044010  72.0677170  17.9153970
  76.4993440  78.5109400  27.9235890  76.8666480  78.4236800  28.8031910
  75.9304260  77.7475950  27.8242750  76.0509440  75.4218490  31.8294310
  75.1565490  75.3885250  32.1688020  76.5906990  75.6205280  32.5945560
  89.7385370  72.2050210  33.7146060  90.6155550  72.2133610  34.0980060
  89.7506210  71.4681050  33.1038410  74.6755590  75.3355760  19.3257880
  73.7719670  75.5985960  19.1509540  75.1596210  75.6066930  18.5457840
  77.2182800  74.3921300  17.2352260  77.9274500  73.9704520  16.7499540
  76.5022740  74.4596530  16.6035610  76.8656960  70.4460630  16.2754910
  77.5885090  70.9869570  16.5936130  77.1381480  70.1724050  15.3996450
  76.5549150  69.6966820  26.1777530  77.2025340  69.1464200  25.7372690
  76.9750990  69.9509970  26.9993340  90.0082950  86.5924180  22.9365410
  90.6042020  86.2708750  22.2599830  90.2661100  86.1196000  23.7278680
  76.3081150  69.8522490  28.9202850  75.9595970  70.3086310  29.6861030
  75.9768850  68.9579620  29.0025280  77.9145520  83.0242090  33.0856040
  77.8715150  82.6535000  33.9670500  78.0456530  83.9619660  33.2257860
  81.6151550  84.5801680  28.6865760  81.3742910  84.8476240  27.7996280
  82.5554190  84.7507410  28.7416620  83.8205970  71.0434370  32.4422270
  83.7594860  71.6356200  33.1917680  84.7606350  70.9360330  32.2972530
  86.4580530  70.7004430  32.0814560  87.0720940  71.0183720  31.4195640
  87.0030090  70.2153020  32.7010420  76.9801790  69.3798690  32.1953620
  77.5284780  69.1986740  31.4319730  77.0457100  68.5892800  32.7309930
  77.7533550  85.9704340  30.2053820  77.1593870  85.8389040  30.9443860
  77.7457390  85.1342480  29.7395920  87.1988570  69.2636570  28.4083850
  86.3248410  69.5971680  28.2056780  87.0899320  68.7909750  29.2335720
  88.1060550  71.4707440  29.7925570  87.7773910  70.6559200  29.4127300
  89.0542850  71.4277250  29.6691260  90.5595160  87.2419480  26.7663140
  90.0998130  87.9935290  26.3921160  89.9307620  86.5225950  26.7077940
  77.3845780  83.3362720  29.1561860  76.6579840  82.7168010  29.0887810
  77.4454930  83.7303330  28.2859940  80.9890880  85.5507720  25.9411270
  81.5055900  84.9395080  25.4159530  81.6388260  86.0536500  26.4322280
  83.7286380  86.4416210  26.7680250  84.0164190  86.1870510  25.8913260
  84.2409600  85.8893570  27.3585820  84.9463390  70.1806410  27.3476760
  84.1635180  70.6551910  27.6273520  84.6526320  69.2761240  27.2389940
  89.4984460  70.8829510  25.3925850  89.9392550  70.8274610  24.5447450
  89.2292050  71.7987520  25.4636030  75.6675780  86.6537110  22.3658620
  75.4997820  86.0207790  23.0640510  74.8010290  86.8596510  22.0152810
  76.2903800  70.4853890  19.8690480  77.0483160  70.5982770  19.2954510
  75.8280970  71.3223090  19.8233910  82.8317610  72.5993160  22.8592790
  82.0192120  72.2250050  22.5188670  83.3359250  71.8438240  23.1613980
  87.3342590  69.2635610  24.0975860  87.9371960  69.8355820  24.5724380
  86.5935580  69.8275050  23.8749760  90.4777190  69.6657170  19.3716140
  90.6727820  70.5640620  19.6383570  89.6907060  69.4344250  19.8649090
  77.2738480  85.3470340  19.8108760  76.7486100  85.7278370  19.1070720
  77.1983060  85.9721110  20.5318470  78.6628950  71.0117940  18.4092450
  79.1921710  70.2247740  18.2800400  79.2957270  71.6909130  18.6427980
  80.8566790  70.7493080  21.4637840  80.2269530  70.0480390  21.6307970
  80.3171930  71.5097210  21.2471000  83.7958740  87.3632310  34.1348450
  84.7226050  87.1276580  34.1784410  83.7809170  88.1904310  33.6534480
  80.9822350  70.0277060  33.8990330  80.7006620  70.5310660  33.1351150
  81.3642050  69.2298810  33.5332460  79.8731450  87.2952720  18.6858010
  80.6050270  87.0112000  18.1381900  80.1325120  87.0566000  19.5757390
  79.0346240  83.4117450  18.6904340  78.4055120  83.8802550  19.2390170
  79.1494070  82.5666670  19.1250530  87.5837810  69.4430640  34.4770800
  87.4703260  69.7625250  35.3722320  88.4007550  69.8443150  34.1808080
  86.4895960  77.4623110   4.8405540  86.4090010  76.5477720   4.5697250
  86.0760380  77.9590180   4.1345250  84.6214000  79.2402130   6.7214810
  83.8456100  78.7602570   7.0113380  85.2726930  78.5607780   6.5470970
  78.6379830  79.5521940   7.5990570  77.8064710  79.2970650   7.9987080
  79.2460810  79.6232710   8.3348490  88.6421430  83.6462320   5.5013940
  88.1802960  82.8749560   5.8301110  89.4546980  83.6728390   6.0066390
  78.6181090  83.5862030   7.7948590  78.9209130  82.6959770   7.6158810
  79.3624680  84.1432250   7.5670840  75.0104790  77.1129480   7.2672660
  75.5820900  76.3451680   7.2676300  75.0106330  77.4118240   6.3579270
  84.8684740  85.9320330   5.1217930  84.2496180  86.3877830   4.5512370
  85.7236520  86.0871790   4.7207630  84.0622990  81.9159320   6.7284970
  83.9931270  80.9749260   6.5674100  84.8242850  82.0060730   7.3007540
  76.2529660  72.5213840   9.0541590  76.0732500  71.6239590   9.3344350
  75.8509740  73.0685710   9.7288540  85.0928160  74.7229700   6.9553900
  85.4692980  73.8501580   6.8427570  84.9947670  75.0588400   6.0644340
  79.2233170  73.0955330   2.4171340  79.3299920  73.9959060   2.7240100
  78.3125530  73.0473300   2.1265990  88.8752280  72.2180140   3.8882240
  89.6961900  71.7276710   3.9307720  88.9086360  72.8077800   4.6414080
  76.8716330  75.0174340   7.6623930  77.5526440  75.2812710   8.2811330
  76.5564380  74.1775210   7.9961940  81.0640900  76.0641700   6.7496520
  81.5719120  76.5622670   7.3901540  81.5954140  75.2876900   6.5735880
  79.3477000  70.7040260  11.0159940  79.3495440  71.2212650  10.2105840
  78.5181310  70.2270440  10.9929870  85.7348090  80.8159570   2.5149840
  85.1165360  81.2809020   1.9512560  86.2471340  81.5087050   2.9319350
  80.5979850  80.3435440   9.1933440  80.2649230  80.9704360   9.8354510
  80.7746530  80.8697320   8.4135110  89.1113760  74.1580520   6.6609780
  88.4069330  74.4465410   7.2412890  89.4725920  74.9680630   6.3009340
  79.0292330  72.4150220   9.0230390  79.3709140  73.2592270   8.7284260
  78.0908140  72.5633960   9.1395730  79.8098950  82.3116240  11.0082620
  80.4272950  82.9867320  10.7267070  78.9492070  82.7204220  10.9170120
  82.7120220  69.9032490   5.3474980  83.0195200  69.3479380   4.6310480
  81.7820920  70.0376950   5.1647970  88.2635280  85.6199780   7.6382440
  88.2762440  85.2162070   6.7704700  87.7110500  86.3947070   7.5343870
  89.5580700  82.3416000   2.7272610  89.4477030  81.3990330   2.8522030
  89.5548950  82.7031640   3.6135370  87.6620720  80.5229620   8.9665050
  88.0789510  80.3089730   8.1318510  88.3860540  80.7802410   9.5373670
  85.1000980  77.9681320   2.0835100  84.1730260  77.9018700   2.3123570
  85.2525800  78.9061450   1.9690340  89.1298270  79.5301620   2.5870350
  88.5110690  79.1921170   1.9396650  89.1122720  78.8861380   3.2949540
  88.5724830  75.7086160  10.0036160  88.1596010  76.5339870  10.2576150
  87.8400780  75.1231200   9.8112520  80.7057620  78.4946060   4.8654830
  80.3014620  77.7823310   4.3700730  80.7920740  78.1499300   5.7542870
  81.1739320  82.1813620   7.0294040  80.8767610  81.5759090   6.3501820
  82.1239140  82.2190930   6.9183400  79.4186240  75.2689270   8.6453870
  79.9700830  75.3784610   7.8707120  79.9329750  75.6426870   9.3609100
  89.2624930  85.7545490  10.6917140  88.7855490  86.5617680  10.4989750
  88.5786720  85.1023820  10.8443350  80.2657750  81.9195310  13.6801840
  79.3686280  82.1435280  13.9275240  80.2910620  82.0430250  12.7313240
  79.0928970  78.7908630  12.2559210  78.9536740  79.6631430  12.6246610
  78.2110330  78.4481440  12.1107150  85.4158350  83.7084500   3.5624340
  85.8554260  84.4508830   3.1479730  85.3545240  83.9511070   4.4863300
  80.8909320  84.7330330  14.4644360  80.8624750  85.1373280  13.5972790
  80.7274290  83.8040690  14.3015960  77.4062250  77.3891040   2.3661480
  77.2859850  78.1153130   1.7542750  77.0963140  76.6193950   1.8889390
  75.0447620  80.5606180   8.1730120  75.1228040  80.6954950   7.2285840
  75.6589300  79.8522070   8.3658240  76.2895250  82.2606370   4.5836300
  75.8823330  82.4020960   3.7289900  77.1808260  81.9766530   4.3807510
  86.1074130  86.4098280  11.4903350  86.6218800  86.3206290  12.2925780
  85.2643210  86.7557980  11.7831260  80.5616910  86.4752150   2.6958970
  80.3859390  85.5587690   2.4826770  79.7072650  86.8339440   2.9356770
  87.3504590  85.8303890   3.5533840  87.8061540  85.0493270   3.8672460
  87.6897110  86.5410710   4.0975020  75.1007140  81.6020350  10.7124580
  75.2638180  81.1325710   9.8943950  75.5659590  81.0943910  11.3773420
  79.8725910  70.7326110   5.7485150  79.4294060  71.5135650   5.4169670
  80.4310900  71.0556000   6.4556090  84.1595720  73.5994630  11.3520470
  83.6975090  73.8077650  12.1640410  83.7573830  72.7853980  11.0491140
  89.1600230  74.8203580  12.4817130  88.3093820  74.5209330  12.8026200
  89.0002020  75.0645590  11.5700950  86.2549940  76.3205330  14.5815920
  86.5803350  75.4869080  14.2418150  87.0430270  76.8433850  14.7294250
  81.9101810  71.2773440   7.6074750  82.2074140  72.1836270   7.5266770
  82.4587370  70.7892220   6.9934320  79.6640130  75.8559680   3.4766400
  79.4381050  75.6396850   4.3813020  78.8832660  76.2888140   3.1312370
  82.1039340  76.7545260  14.1426670  82.0082940  75.8139990  13.9927070
  82.9471320  76.9760330  13.7474740  85.5002760  74.4986590   4.1060330
  85.8932330  74.8158790   3.2929020  85.8619610  73.6198470   4.2204850
  77.2349880  73.1658930  12.2960450  76.8413270  74.0134140  12.5033230
  76.5468280  72.5285300  12.4869090  83.8094930  73.2493900  15.3657190
  83.1193250  73.0566100  16.0003280  84.5527230  73.5328540  15.8981490
  74.5366930  71.0887390   6.3290530  74.2479980  71.6590250   7.0415510
  75.2812690  70.6091840   6.6921760  86.0857900  77.0892340   8.2011110
  85.3539020  77.5979150   8.5501210  85.6882240  76.2722320   7.8999890
  82.5235290  73.7646540   6.6063600  82.5271350  73.3236490   5.7568140
  83.4186410  74.0863870   6.7135420  78.3737670  73.6473030   5.5657810
  78.0337720  74.1248260   6.3224860  77.6114990  73.1938150   5.2058910
  86.5483810  72.5426020   7.6134050  86.5656550  72.9934670   8.4575900
  86.2999390  71.6431660   7.8267490  89.9754560  69.9558200  13.4520430
  90.3000330  69.2247860  13.9778410  90.0111070  69.6371840  12.5501420
  76.6746120  80.9771780  12.8720390  76.2900910  80.3365450  13.4703350
  76.9858310  81.6807900  13.4415120  82.8243260  77.8248320   8.3529010
  83.1913390  77.3506890   9.0990350  82.6348320  78.6989890   8.6937350
  75.6883750  72.5692010   4.4822480  75.4030670  72.2047680   5.3201100
  75.6262610  71.8372470   3.8685620  80.6142630  76.8656960  10.6713220
  80.3099700  77.7448940  10.8963580  81.5689090  76.9256750  10.7070660
  89.9012400  80.0683310   7.0606460  90.6211520  80.5638600   6.6702570
  89.6994220  79.3901200   6.4160330  85.2831200  80.1392370  12.9475460
  85.2168510  79.2188040  12.6933050  84.6536340  80.2367810  13.6620100
  79.1861820  80.7398330   4.9058880  79.7040490  79.9366590   4.8515770
  78.7345840  80.6777470   5.7475710  76.6706360  77.7059700  11.8184580
  76.3121300  78.3713550  12.4057920  76.3760920  76.8743250  12.1897200
  79.8719480  78.1643940  14.7024130  79.5719620  78.3101120  13.8051950
  80.6430720  77.6049230  14.6097520  85.2147930  82.9612940  12.6979260
  85.2292470  82.0293900  12.4798170  84.5073030  83.0472700  13.3369030
  86.9558730  81.3280450   5.5431690  87.3082550  80.7308580   4.8833060
  86.0721060  81.0024680   5.7139940  83.0422010  82.0878140   2.9502100
  83.7293140  82.6347350   3.3309690  82.2554430  82.6318870   2.9851710
  82.3449220  79.0924170   2.5627460  82.8012000  79.9029420   2.7887650
  81.9937430  78.7747310   3.3945950  84.6481830  84.6030510   9.7919760
  85.2924050  84.8089890  10.4693180  85.0111270  83.8418910   9.3390610
  78.2461000  69.4361820   3.0349980  78.1175630  69.4279720   3.9834900
  77.4223020  69.7744910   2.6840990  85.9213910  82.6062860   8.5097210
  86.5636140  81.9056020   8.6229380  86.4463260  83.3861300   8.3294100
  87.6951530  83.4057760  11.7133270  88.0307770  83.9924450  12.3911190
  86.7751870  83.2750470  11.9431060  75.2454930  71.1952940  12.4956680
  74.5313450  71.3949860  13.1009290  75.6649970  70.4192510  12.8671480
  75.5327520  85.1833200  13.4823210  75.6418640  84.2427940  13.3418600
  74.8808080  85.4487950  12.8336940  83.5240110  83.4549090  14.8821330
  83.2036980  82.7358330  15.4267020  82.8498470  84.1304160  14.9557390
  86.7393710  73.6875250  10.2458130  87.1074530  72.8670460  10.5737700
  85.8791910  73.7477140  10.6613780  82.0739770  74.9218140   2.4703570
  81.3655920  75.3904480   2.9117180  82.3584250  74.2640150   3.1048760
  83.6995700  76.3414840  10.4696100  84.1980950  76.8160660  11.1347950
  83.8418650  75.4178360  10.6766130  86.1055200  71.6468800   3.9099360
  85.9822980  71.6654930   2.9608870  87.0539760  71.6947740   4.0297760
  83.1931990  86.8824100   3.1827340  83.4473490  86.8445490   2.2606710
  82.2444470  86.7557430   3.1755590  89.1984570  77.8015980   4.7585850
  88.2574710  77.8166210   4.9333540  89.5128640  77.0151940   5.2046150
  78.6727680  87.0656040   6.1057240  79.4090160  86.5171500   6.3765810
  79.0568600  87.9312050   5.9663230  75.5573160  83.1329610   1.9798750
  74.6312940  83.3750750   1.9704160  76.0229590  83.9603870   1.8583500
  77.6785960  86.2502110  15.2942820  78.4798690  86.5714160  15.7078220
  77.1637780  85.8897690  16.0162730  86.5150590  82.3581980  15.2418230
  85.9088750  82.3813580  14.5013980  86.2104700  81.6265020  15.7785480
  87.9450960  86.0862270  13.8527640  88.8972710  86.0020290  13.8027880
  87.7979180  86.7503980  14.5261430  75.3983770  78.7375570  14.2378870
  75.9022790  78.1582850  14.8095100  74.6591190  79.0215800  14.7755240
  82.4521710  80.1446560  13.7714390  81.6867380  80.7131560  13.6869060
  82.6337670  79.8522770  12.8782620  89.5945060  81.8751890  14.3289410
  90.3354530  82.2127650  13.8256870  88.8317740  82.0443950  13.7759180
  77.4306850  76.8805160  15.1328940  77.4712190  76.5819030  16.0414170
  78.2852350  77.2812770  14.9736460  79.3712660  75.4597260  13.1003430
  78.8409120  74.9688210  12.4726770  80.0400730  75.8881460  12.5661360
  88.2690720  79.9266720  12.8644620  88.6831740  80.0811800  13.7135040
  87.3341720  80.0521940  13.0270400  88.7412890  77.2662880  14.8683770
  89.3233660  76.5115200  14.7804250  88.9174660  77.7970320  14.0915250
  79.8584960  72.4259630  13.1800720  79.7641830  71.8080380  12.4551590
  79.2782350  73.1525920  12.9530630  82.6246400  70.9832870  10.2128110
  82.1763700  71.0057130   9.3673660  81.9911600  70.5851890  10.8098410
  83.0305950  79.8787200  10.8340550  83.4494060  80.7219930  10.6616790
  82.1114580  80.0159240  10.6047330  85.3669850  77.6103380  12.2178390
  85.4866060  77.0144520  12.9573230  86.2263850  77.6473070  11.7979690
  87.7057750  78.1640570  10.7940900  87.1792970  78.6883190  10.1906040
  88.0489090  78.7967960  11.4250630  80.8813370  86.1840210  11.9498280
  80.3434460  86.9086270  11.6306980  81.1347330  85.7070550  11.1595620
  82.1338620  74.1524730  13.4754210  82.7238310  73.8440580  14.1632030
  81.3158860  73.6804480  13.6314110  86.9532050  73.7690540  13.7087230
  86.2647570  73.1072080  13.6437220  87.6738070  73.3228810  14.1535690
  83.7375580  87.4191420  12.2084930  83.6634280  88.3226560  12.5157300
  82.8354420  87.1003320  12.1807000  75.1402870  84.7466010   5.5118550
  75.4705880  83.8787070   5.2797190  75.5693870  84.9524530   6.3423510
  79.7364790  83.0775020   3.1720520  79.4360330  82.9539990   4.0724430
  79.6302280  82.2183610   2.7636250  75.6293080  85.6136600   8.2500180
  75.1924070  85.7937400   9.0824330  76.1970760  86.3711220   8.1081900
  75.4617510  78.1256830   4.6089060  74.8066350  77.8568470   3.9648760
  76.2995460  78.0161310   4.1591040  89.9506900  81.8405580  10.6353650
  89.1366740  82.2702740  10.8979440  90.3581100  82.4523990  10.0222700
  76.4993440  78.5109400   9.1492400  76.8666480  78.4236800  10.0288420
  75.9304260  77.7475950   9.0499260  76.0509440  75.4218490  13.0550820
  75.1565490  75.3885250  13.3944530  76.5906990  75.6205280  13.8202070
  89.7385370  72.2050210  14.9402570  90.6155550  72.2133610  15.3236570
  89.7506210  71.4681050  14.3294920  76.5549150  69.6966820   7.4034040
  77.2025340  69.1464200   6.9629200  76.9750990  69.9509970   8.2249850
  90.0082950  86.5924180   4.1621920  90.6042020  86.2708750   3.4856340
  90.2661100  86.1196000   4.9535190  76.3081150  69.8522490  10.1459360
  75.9595970  70.3086310  10.9117540  75.9768850  68.9579620  10.2281790
  77.9145520  83.0242090  14.3112550  77.8715150  82.6535000  15.1927010
  78.0456530  83.9619660  14.4514370  81.6151550  84.5801680   9.9122270
  81.3742910  84.8476240   9.0252790  82.5554190  84.7507410   9.9673130
  83.8205970  71.0434370  13.6678780  83.7594860  71.6356200  14.4174190
  84.7606350  70.9360330  13.5229040  86.4580530  70.7004430  13.3071070
  87.0720940  71.0183720  12.6452150  87.0030090  70.2153020  13.9266930
  76.9801790  69.3798690  13.4210130  77.5284780  69.1986740  12.6576240
  77.0457100  68.5892800  13.9566440  77.7533550  85.9704340  11.4310330
  77.1593870  85.8389040  12.1700370  77.7457390  85.1342480  10.9652430
  87.1988570  69.2636570   9.6340360  86.3248410  69.5971680   9.4313290
  87.0899320  68.7909750  10.4592230  88.1060550  71.4707440  11.0182080
  87.7773910  70.6559200  10.6383810  89.0542850  71.4277250  10.8947770
  90.5595160  87.2419480   7.9919650  90.0998130  87.9935290   7.6177670
  89.9307620  86.5225950   7.9334450  77.3845780  83.3362720  10.3818370
  76.6579840  82.7168010  10.3144320  77.4454930  83.7303330   9.5116450
  80.9890880  85.5507720   7.1667780  81.5055900  84.9395080   6.6416040
  81.6388260  86.0536500   7.6578790  83.7286380  86.4416210   7.9936760
  84.0164190  86.1870510   7.1169770  84.2409600  85.8893570   8.5842330
  84.9463390  70.1806410   8.5733270  84.1635180  70.6551910   8.8530030
  84.6526320  69.2761240   8.4646450  89.4984460  70.8829510   6.6182360
  89.9392550  70.8274610   5.7703960  89.2292050  71.7987520   6.6892540
  75.6675780  86.6537110   3.5915130  75.4997820  86.0207790   4.2897020
  74.8010290  86.8596510   3.2409320  82.8317610  72.5993160   4.0849300
  82.0192120  72.2250050   3.7445180  83.3359250  71.8438240   4.3870490
  87.3342590  69.2635610   5.3232370  87.9371960  69.8355820   5.7980890
  86.5935580  69.8275050   5.1006270  80.8566790  70.7493080   2.6894350
  80.2269530  70.0480390   2.8564480  80.3171930  71.5097210   2.4727510
  83.7958740  87.3632310  15.3604960  84.7226050  87.1276580  15.4040920
  83.7809170  88.1904310  14.8790990  80.9822350  70.0277060  15.1246840
  80.7006620  70.5310660  14.3607660  81.3642050  69.2298810  14.7588970
  87.5837810  69.4430640  15.7027310  87.4703260  69.7625250  16.5978830
  88.4007550  69.8443150  15.4064590  86.4895960  58.6879620  61.1636010
  86.4090010  57.7734230  60.8927720  86.0760380  59.1846690  60.4575720
  84.6214000  60.4658640  63.0445280  83.8456100  59.9859080  63.3343850
  85.2726930  59.7864290  62.8701440  78.6379830  60.7778450  63.9221040
  77.8064710  60.5227160  64.3217550  79.2460810  60.8489220  64.6578960
  88.6421430  64.8718830  61.8244410  88.1802960  64.1006070  62.1531580
  89.4546980  64.8984900  62.3296860  78.6181090  64.8118540  64.1179060
  78.9209130  63.9216280  63.9389280  79.3624680  65.3688760  63.8901310
  77.0471780  55.7380340  57.7063430  76.1588480  56.0796310  57.6043310
  77.3312970  55.5380660  56.8144260  75.0104790  58.3385990  63.5903130
  75.5820900  57.5708190  63.5906770  75.0106330  58.6374750  62.6809740
  84.8684740  67.1576840  61.4448400  84.2496180  67.6134340  60.8742840
  85.7236520  67.3128300  61.0438100  84.0622990  63.1415830  63.0515440
  83.9931270  62.2005770  62.8904570  84.8242850  63.2317240  63.6238010
  76.2529660  53.7470350  65.3772060  76.0732500  52.8496100  65.6574820
  75.8509740  54.2942220  66.0519010  85.0928160  55.9486210  63.2784370
  85.4692980  55.0758090  63.1658040  84.9947670  56.2844910  62.3874810
  79.2233170  54.3211840  58.7401810  79.3299920  55.2215570  59.0470570
  78.3125530  54.2729810  58.4496460  88.8752280  53.4436650  60.2112710
  89.6961900  52.9533220  60.2538190  88.9086360  54.0334310  60.9644550
  76.8716330  56.2430850  63.9854400  77.5526440  56.5069220  64.6041800
  76.5564380  55.4031720  64.3192410  81.0640900  57.2898210  63.0726990
  81.5719120  57.7879180  63.7132010  81.5954140  56.5133410  62.8966350
  79.3477000  51.9296770  67.3390410  79.3495440  52.4469160  66.5336310
  78.5181310  51.4526950  67.3160340  85.7348090  62.0416080  58.8380310
  85.1165360  62.5065530  58.2743030  86.2471340  62.7343560  59.2549820
  80.5979850  61.5691950  65.5163910  80.2649230  62.1960870  66.1584980
  80.7746530  62.0953830  64.7365580  89.1113760  55.3837030  62.9840250
  88.4069330  55.6721920  63.5643360  89.4725920  56.1937140  62.6239810
  79.0292330  53.6406730  65.3460860  79.3709140  54.4848780  65.0514730
  78.0908140  53.7890470  65.4626200  79.8098950  63.5372750  67.3313090
  80.4272950  64.2123830  67.0497540  78.9492070  63.9460730  67.2400590
  75.1031290  62.7272610  56.2119940  74.7259270  63.2159710  55.4804840
  75.3604360  63.3997890  56.8426470  82.7120220  51.1289000  61.6705450
  83.0195200  50.5735890  60.9540950  81.7820920  51.2633460  61.4878440
  88.2635280  66.8456290  63.9612910  88.2762440  66.4418580  63.0935170
  87.7110500  67.6203580  63.8574340  89.5580700  63.5672510  59.0503080
  89.4477030  62.6246840  59.1752500  89.5548950  63.9288150  59.9365840
  87.6620720  61.7486130  65.2895520  88.0789510  61.5346240  64.4548980
  88.3860540  62.0058920  65.8604140  85.1000980  59.1937830  58.4065570
  84.1730260  59.1275210  58.6354040  85.2525800  60.1317960  58.2920810
  85.0870060  55.4654830  55.4032730  84.1473730  55.6268790  55.4885190
  85.4053320  56.1840510  54.8568720  89.1298270  60.7558130  58.9100820
  88.5110690  60.4177680  58.2627120  89.1122720  60.1117890  59.6180010
  88.5724830  56.9342670  66.3266630  88.1596010  57.7596380  66.5806620
  87.8400780  56.3487710  66.1342990  80.7057620  59.7202570  61.1885300
  80.3014620  59.0079820  60.6931200  80.7920740  59.3755810  62.0773340
  81.1739320  63.4070130  63.3524510  80.8767610  62.8015600  62.6732290
  82.1239140  63.4447440  63.2413870  79.4186240  56.4945780  64.9684340
  79.9700830  56.6041120  64.1937590  79.9329750  56.8683380  65.6839570
  89.2624930  66.9802000  67.0147610  88.7855490  67.7874190  66.8220220
  88.5786720  66.3280330  67.1673820  87.3062970  59.9944940  55.9173570
  87.7456250  59.1567370  55.7711390  88.0191390  60.6274340  56.0037710
  85.4158350  64.9341010  59.8854810  85.8554260  65.6765340  59.4710200
  85.3545240  65.1767580  60.8093770  77.4062250  58.6147550  58.6891950
  77.2859850  59.3409640  58.0773220  77.0963140  57.8450460  58.2119860
  75.0447620  61.7862690  64.4960590  75.1228040  61.9211460  63.5516310
  75.6589300  61.0778580  64.6888710  76.2895250  63.4862880  60.9066770
  75.8823330  63.6277470  60.0520370  77.1808260  63.2023040  60.7037980
  88.0828530  67.9210130  57.2417820  87.9229670  67.6313070  58.1399650
  87.9175240  67.1450260  56.7063050  80.5616910  67.7008660  59.0189440
  80.3859390  66.7844200  58.8057240  79.7072650  68.0595950  59.2587240
  87.7854660  65.4297690  55.8015820  87.0919820  65.4274980  55.1418100
  88.5277520  65.0057010  55.3709990  87.3504590  67.0560400  59.8764310
  87.8061540  66.2749780  60.1902930  87.6897110  67.7667220  60.4205490
  75.1007140  62.8276860  67.0355050  75.2638180  62.3582220  66.2174420
  75.5659590  62.3200420  67.7003890  79.8725910  51.9582620  62.0715620
  79.4294060  52.7392160  61.7400140  80.4310900  52.2812510  62.7786560
  82.9884730  51.5793320  56.9521450  82.3638910  51.5753190  57.6774760
  82.9014850  50.7124280  56.5557420  81.9101810  52.5029950  63.9305220
  82.2074140  53.4092780  63.8497240  82.4587370  52.0148730  63.3164790
  79.6640130  57.0816190  59.7996870  79.4381050  56.8653360  60.7043490
  78.8832660  57.5144650  59.4542840  86.8937890  57.0879560  58.3987520
  86.2946780  57.8115360  58.2151140  87.4417500  57.0256340  57.6163970
  85.5002760  55.7243100  60.4290800  85.8932330  56.0415300  59.6159490
  85.8619610  54.8454980  60.5435320  74.5366930  52.3143900  62.6521000
  74.2479980  52.8846760  63.3645980  75.2812690  51.8348350  63.0152230
  74.7237160  56.2564020  53.8623720  74.6411830  57.1994780  54.0038710
  74.3720220  56.1138930  52.9836070  86.0857900  58.3148850  64.5241580
  85.3539020  58.8235660  64.8731680  85.6882240  57.4978830  64.2230360
  82.5235290  54.9903050  62.9294070  82.5271350  54.5493000  62.0798610
  83.4186410  55.3120380  63.0365890  78.3737670  54.8729540  61.8888280
  78.0337720  55.3504770  62.6455330  77.6114990  54.4194660  61.5289380
  82.5855440  55.9915130  55.9200830  82.7068260  55.9501610  56.8686650
  82.2003950  56.8539280  55.7647560  86.5483810  53.7682530  63.9364520
  86.5656550  54.2191180  64.7806370  86.2999390  52.8688170  64.1497960
  81.5976940  58.3016270  55.3184130  81.0293840  57.8534520  54.6920040
  82.3065940  58.6609050  54.7849280  82.8243260  59.0504830  64.6759480
  83.1913390  58.5763400  65.4220820  82.6348320  59.9246400  65.0167820
  75.6883750  53.7948520  60.8052950  75.4030670  53.4304190  61.6431570
  75.6262610  53.0628980  60.1916090  80.6142630  58.0913470  66.9943690
  80.3099700  58.9705450  67.2194050  81.5689090  58.1513260  67.0301130
  79.1424420  62.2974460  57.5910540  78.3686680  61.7572080  57.4309260
  79.8719050  61.7781070  57.2528300  89.9012400  61.2939820  63.3836930
  90.6211520  61.7895110  62.9933040  89.6994220  60.6157710  62.7390800
  85.3622340  52.6877780  57.5266320  84.5486950  52.1890950  57.4511630
  85.1684290  53.5276030  57.1102670  88.0770730  57.0597430  55.8228480
  88.9650350  57.3714660  55.6479820  88.0475820  56.1869680  55.4309060
  79.1861820  61.9654840  61.2289350  79.7040490  61.1623100  61.1746240
  78.7345840  61.9033980  62.0706180  84.0731320  63.2321120  56.5016650
  84.4147020  63.9763350  56.0059970  83.2444030  63.5452240  56.8641480
  86.9558730  62.5536960  61.8662160  87.3082550  61.9565090  61.2063530
  86.0721060  62.2281190  62.0370410  83.0422010  63.3134650  59.2732570
  83.7293140  63.8603860  59.6540160  82.2554430  63.8575380  59.3082180
  75.1814410  58.9307470  54.7649650  76.0509260  59.2132270  55.0485570
  74.6904730  59.7443340  54.6498460  82.3449220  60.3180680  58.8857930
  82.8012000  61.1285930  59.1118120  81.9937430  60.0003820  59.7176420
  84.6481830  65.8287020  66.1150230  85.2924050  66.0346400  66.7923650
  85.0111270  65.0675420  65.6621080  78.2461000  50.6618330  59.3580450
  78.1175630  50.6536230  60.3065370  77.4223020  51.0001420  59.0071460
  85.9213910  63.8319370  64.8327680  86.5636140  63.1312530  64.9459850
  86.4463260  64.6117810  64.6524570  89.7669630  64.1167990  54.5566820
  89.5407210  63.3998430  55.1491460  89.3765830  63.8680430  53.7188570
  75.5485660  68.1434850  55.3311280  75.9083300  68.7424190  54.6768550
  75.4078000  68.6894740  56.1046310  89.3485880  62.0339930  56.2180980
  89.0607580  62.4952620  57.0058860  90.1438050  61.5737700  56.4865200
  81.5654280  65.5266050  56.1484950  81.5564380  66.2595740  55.5329460
  80.6452640  65.2797630  56.2411910  77.1660920  60.7480940  56.8931710
  76.5588870  61.4879840  56.9027010  77.6410270  60.8380300  56.0669910
  86.7393710  54.9131760  66.5688600  87.1074530  54.0926970  66.8968170
  85.8791910  54.9733650  66.9844250  90.1055740  53.8688700  57.3776160
  89.4768900  53.9734370  56.6634390  89.6107660  54.0885480  58.1670040
  84.5513880  65.5894290  54.8110140  84.6525860  65.3858280  53.8812120
  83.6515620  65.3352570  55.0157920  82.0739770  56.1474650  58.7934040
  81.3655920  56.6160990  59.2347650  82.3584250  55.4896660  59.4279230
  83.6995700  57.5671350  66.7926570  84.1980950  58.0417170  67.4578420
  83.8418650  56.6434870  66.9996600  86.1055200  52.8725310  60.2329830
  85.9822980  52.8911440  59.2839340  87.0539760  52.9204250  60.3528230
  83.1931990  68.1080610  59.5057810  83.4473490  68.0702000  58.5837180
  82.2444470  67.9813940  59.4986060  80.2774790  54.4559730  56.1684750
  81.1265320  54.8929880  56.1024940  79.9106060  54.7679990  56.9956810
  89.1984570  59.0272490  61.0816320  88.2574710  59.0422720  61.2564010
  89.5128640  58.2408450  61.5276620  79.1766210  60.7092090  54.6420280
  79.9429480  60.5973450  55.2045710  79.2540900  60.0130060  53.9897050
  77.8712970  58.1417160  55.3253170  77.9516560  57.1944670  55.4370570
  78.7632720  58.4724040  55.4313830  78.6727680  68.2912550  62.4287710
  79.4090160  67.7428010  62.6996280  79.0568600  69.1568560  62.2893700
  75.5573160  64.3586120  58.3029220  74.6312940  64.6007260  58.2934630
  76.0229590  65.1860380  58.1813970  81.7829990  67.4642860  54.2513280
  82.5758600  67.7531690  53.7995070  81.2634340  67.0335030  53.5725760
  82.3007390  62.6846270  54.1155630  82.1958030  62.0698620  54.8417010
  82.1331610  62.1612160  53.3318640  85.5410120  61.7466300  54.7197620
  84.9920220  62.1935600  55.3640360  86.1629380  61.2415550  55.2435290
  81.2085240  60.7057220  56.6162920  81.6301660  60.5397090  57.4594310
  81.3336080  59.8957450  56.1218060  83.7212880  59.7294830  53.8640020
  84.2418540  59.0143850  53.4981170  84.3681280  60.3680700  54.1640530
  82.6246400  52.2089380  66.5358580  82.1763700  52.2313640  65.6904130
  81.9911600  51.8108400  67.1328880  83.0305950  61.1043710  67.1571020
  83.4494060  61.9476440  66.9847260  82.1114580  61.2415750  66.9277800
  87.7057750  59.3897080  67.1171370  87.1792970  59.9139700  66.5136510
  88.0489090  60.0224470  67.7481100  80.1044140  56.7790450  53.5621080
  79.9033200  55.9157810  53.9234420  79.9336190  56.6923810  52.6242680
  87.5832450  51.5898680  56.0907960  87.8634740  50.7466580  56.4467380
  86.8098180  51.8221790  56.6046710  78.9026940  53.8791070  53.5498960
  79.2052840  53.8858500  52.6418110  79.6421530  53.5288930  54.0466620
  82.1211870  52.8225690  54.5355160  81.7733870  52.1449680  53.9557610
  82.3224640  52.3615200  55.3498550  84.2860910  67.8106440  56.1541760
  85.1811700  68.1491410  56.1760520  84.3178540  67.0885850  55.5266040
  77.9257070  63.1833490  54.3828760  78.3631940  63.7263160  55.0386340
  78.4104800  62.3580440  54.3925100  75.1402870  65.9722520  61.8349020
  75.4705880  65.1043580  61.6027660  75.5693870  66.1781040  62.6653980
  79.7364790  64.3031530  59.4950990  79.4360330  64.1796500  60.3954900
  79.6302280  63.4440120  59.0866720  75.6293080  66.8393110  64.5730650
  75.1924070  67.0193910  65.4054800  76.1970760  67.5967730  64.4312370
  75.4617510  59.3513340  60.9319530  74.8066350  59.0824980  60.2879230
  76.2995460  59.2417820  60.4821510  89.9506900  63.0662090  66.9584120
  89.1366740  63.4959250  67.2209910  90.3581100  63.6780500  66.3453170
  88.4107950  54.1454630  55.1538020  88.8292830  53.9585610  54.3134680
  88.1044010  53.2933680  55.4640950  76.4993440  59.7365910  65.4722870
  76.8666480  59.6493310  66.3518890  75.9304260  58.9732460  65.3729730
  74.6755590  56.5612270  56.8744860  73.7719670  56.8242470  56.6996520
  75.1596210  56.8323440  56.0944820  77.2182800  55.6177810  54.7839240
  77.9274500  55.1961030  54.2986520  76.5022740  55.6853040  54.1522590
  76.8656960  51.6717140  53.8241890  77.5885090  52.2126080  54.1423110
  77.1381480  51.3980560  52.9483430  76.5549150  50.9223330  63.7264510
  77.2025340  50.3720710  63.2859670  76.9750990  51.1766480  64.5480320
  90.0082950  67.8180690  60.4852390  90.6042020  67.4965260  59.8086810
  90.2661100  67.3452510  61.2765660  76.3081150  51.0779000  66.4689830
  75.9595970  51.5342820  67.2348010  75.9768850  50.1836130  66.5512260
  81.6151550  65.8058190  66.2352740  81.3742910  66.0732750  65.3483260
  82.5554190  65.9763920  66.2903600  87.1988570  50.4893080  65.9570830
  86.3248410  50.8228190  65.7543760  87.0899320  50.0166260  66.7822700
  88.1060550  52.6963950  67.3412550  87.7773910  51.8815710  66.9614280
  89.0542850  52.6533760  67.2178240  90.5595160  68.4675990  64.3150120
  90.0998130  69.2191800  63.9408140  89.9307620  67.7482460  64.2564920
  77.3845780  64.5619230  66.7048840  76.6579840  63.9424520  66.6374790
  77.4454930  64.9559840  65.8346920  80.9890880  66.7764230  63.4898250
  81.5055900  66.1651590  62.9646510  81.6388260  67.2793010  63.9809260
  83.7286380  67.6672720  64.3167230  84.0164190  67.4127020  63.4400240
  84.2409600  67.1150080  64.9072800  84.9463390  51.4062920  64.8963740
  84.1635180  51.8808420  65.1760500  84.6526320  50.5017750  64.7876920
  89.4984460  52.1086020  62.9412830  89.9392550  52.0531120  62.0934430
  89.2292050  53.0244030  63.0123010  75.6675780  67.8793620  59.9145600
  75.4997820  67.2464300  60.6127490  74.8010290  68.0853020  59.5639790
  76.2903800  51.7110400  57.4177460  77.0483160  51.8239280  56.8441490
  75.8280970  52.5479600  57.3720890  82.8317610  53.8249670  60.4079770
  82.0192120  53.4506560  60.0675650  83.3359250  53.0694750  60.7100960
  87.3342590  50.4892120  61.6462840  87.9371960  51.0612330  62.1211360
  86.5935580  51.0531560  61.4236740  90.4777190  50.8913680  56.9203120
  90.6727820  51.7897130  57.1870550  89.6907060  50.6600760  57.4136070
  77.2738480  66.5726850  57.3595740  76.7486100  66.9534880  56.6557700
  77.1983060  67.1977620  58.0805450  78.6628950  52.2374450  55.9579430
  79.1921710  51.4504250  55.8287380  79.2957270  52.9165640  56.1914960
  80.8566790  51.9749590  59.0124820  80.2269530  51.2736900  59.1794950
  80.3171930  52.7353720  58.7957980  79.8731450  68.5209230  56.2344990
  80.6050270  68.2368510  55.6868880  80.1325120  68.2822510  57.1244370
  79.0346240  64.6373960  56.2391320  78.4055120  65.1059060  56.7877150
  79.1494070  63.7923180  56.6737510  86.4895960  58.6879620  42.3892520
  86.4090010  57.7734230  42.1184230  86.0760380  59.1846690  41.6832230
  84.6214000  60.4658640  44.2701790  83.8456100  59.9859080  44.5600360
  85.2726930  59.7864290  44.0957950  78.6379830  60.7778450  45.1477550
  77.8064710  60.5227160  45.5474060  79.2460810  60.8489220  45.8835470
  88.6421430  64.8718830  43.0500920  88.1802960  64.1006070  43.3788090
  89.4546980  64.8984900  43.5553370  78.6181090  64.8118540  45.3435570
  78.9209130  63.9216280  45.1645790  79.3624680  65.3688760  45.1157820
  77.0471780  55.7380340  38.9319940  76.1588480  56.0796310  38.8299820
  77.3312970  55.5380660  38.0400770  75.0104790  58.3385990  44.8159640
  75.5820900  57.5708190  44.8163280  75.0106330  58.6374750  43.9066250
  84.8684740  67.1576840  42.6704910  84.2496180  67.6134340  42.0999350
  85.7236520  67.3128300  42.2694610  84.0622990  63.1415830  44.2771950
  83.9931270  62.2005770  44.1161080  84.8242850  63.2317240  44.8494520
  76.2529660  53.7470350  46.6028570  76.0732500  52.8496100  46.8831330
  75.8509740  54.2942220  47.2775520  85.0928160  55.9486210  44.5040880
  85.4692980  55.0758090  44.3914550  84.9947670  56.2844910  43.6131320
  79.2233170  54.3211840  39.9658320  79.3299920  55.2215570  40.2727080
  78.3125530  54.2729810  39.6752970  88.8752280  53.4436650  41.4369220
  89.6961900  52.9533220  41.4794700  88.9086360  54.0334310  42.1901060
  76.8716330  56.2430850  45.2110910  77.5526440  56.5069220  45.8298310
  76.5564380  55.4031720  45.5448920  81.0640900  57.2898210  44.2983500
  81.5719120  57.7879180  44.9388520  81.5954140  56.5133410  44.1222860
  79.3477000  51.9296770  48.5646920  79.3495440  52.4469160  47.7592820
  78.5181310  51.4526950  48.5416850  85.7348090  62.0416080  40.0636820
  85.1165360  62.5065530  39.4999540  86.2471340  62.7343560  40.4806330
  80.5979850  61.5691950  46.7420420  80.2649230  62.1960870  47.3841490
  80.7746530  62.0953830  45.9622090  89.1113760  55.3837030  44.2096760
  88.4069330  55.6721920  44.7899870  89.4725920  56.1937140  43.8496320
  79.0292330  53.6406730  46.5717370  79.3709140  54.4848780  46.2771240
  78.0908140  53.7890470  46.6882710  79.8098950  63.5372750  48.5569600
  80.4272950  64.2123830  48.2754050  78.9492070  63.9460730  48.4657100
  75.1031290  62.7272610  37.4376450  74.7259270  63.2159710  36.7061350
  75.3604360  63.3997890  38.0682980  82.7120220  51.1289000  42.8961960
  83.0195200  50.5735890  42.1797460  81.7820920  51.2633460  42.7134950
  88.2635280  66.8456290  45.1869420  88.2762440  66.4418580  44.3191680
  87.7110500  67.6203580  45.0830850  89.5580700  63.5672510  40.2759590
  89.4477030  62.6246840  40.4009010  89.5548950  63.9288150  41.1622350
  87.6620720  61.7486130  46.5152030  88.0789510  61.5346240  45.6805490
  88.3860540  62.0058920  47.0860650  85.1000980  59.1937830  39.6322080
  84.1730260  59.1275210  39.8610550  85.2525800  60.1317960  39.5177320
  85.0870060  55.4654830  36.6289240  84.1473730  55.6268790  36.7141700
  85.4053320  56.1840510  36.0825230  89.1298270  60.7558130  40.1357330
  88.5110690  60.4177680  39.4883630  89.1122720  60.1117890  40.8436520
  88.5724830  56.9342670  47.5523140  88.1596010  57.7596380  47.8063130
  87.8400780  56.3487710  47.3599500  80.7057620  59.7202570  42.4141810
  80.3014620  59.0079820  41.9187710  80.7920740  59.3755810  43.3029850
  81.1739320  63.4070130  44.5781020  80.8767610  62.8015600  43.8988800
  82.1239140  63.4447440  44.4670380  79.4186240  56.4945780  46.1940850
  79.9700830  56.6041120  45.4194100  79.9329750  56.8683380  46.9096080
  89.2624930  66.9802000  48.2404120  88.7855490  67.7874190  48.0476730
  88.5786720  66.3280330  48.3930330  80.2657750  63.1451820  51.2288820
  79.3686280  63.3691790  51.4762220  80.2910620  63.2686760  50.2800220
  87.3062970  59.9944940  37.1430080  87.7456250  59.1567370  36.9967900
  88.0191390  60.6274340  37.2294220  79.0928970  60.0165140  49.8046190
  78.9536740  60.8887940  50.1733590  78.2110330  59.6737950  49.6594130
  85.4158350  64.9341010  41.1111320  85.8554260  65.6765340  40.6966710
  85.3545240  65.1767580  42.0350280  80.8909320  65.9586840  52.0131340
  80.8624750  66.3629790  51.1459770  80.7274290  65.0297200  51.8502940
  77.4062250  58.6147550  39.9148460  77.2859850  59.3409640  39.3029730
  77.0963140  57.8450460  39.4376370  75.0447620  61.7862690  45.7217100
  75.1228040  61.9211460  44.7772820  75.6589300  61.0778580  45.9145220
  76.2895250  63.4862880  42.1323280  75.8823330  63.6277470  41.2776880
  77.1808260  63.2023040  41.9294490  86.1074130  67.6354790  49.0390330
  86.6218800  67.5462800  49.8412760  85.2643210  67.9814490  49.3318240
  88.0828530  67.9210130  38.4674330  87.9229670  67.6313070  39.3656160
  87.9175240  67.1450260  37.9319560  80.5616910  67.7008660  40.2445950
  80.3859390  66.7844200  40.0313750  79.7072650  68.0595950  40.4843750
  87.7854660  65.4297690  37.0272330  87.0919820  65.4274980  36.3674610
  88.5277520  65.0057010  36.5966500  87.3504590  67.0560400  41.1020820
  87.8061540  66.2749780  41.4159440  87.6897110  67.7667220  41.6462000
  75.1007140  62.8276860  48.2611560  75.2638180  62.3582220  47.4430930
  75.5659590  62.3200420  48.9260400  79.8725910  51.9582620  43.2972130
  79.4294060  52.7392160  42.9656650  80.4310900  52.2812510  44.0043070
  84.1595720  54.8251140  48.9007450  83.6975090  55.0334160  49.7127390
  83.7573830  54.0110490  48.5978120  89.1600230  56.0460090  50.0304110
  88.3093820  55.7465840  50.3513180  89.0002020  56.2902100  49.1187930
  86.2549940  57.5461840  52.1302900  86.5803350  56.7125590  51.7905130
  87.0430270  58.0690360  52.2781230  82.9884730  51.5793320  38.1777960
  82.3638910  51.5753190  38.9031270  82.9014850  50.7124280  37.7813930
  81.9101810  52.5029950  45.1561730  82.2074140  53.4092780  45.0753750
  82.4587370  52.0148730  44.5421300  79.6640130  57.0816190  41.0253380
  79.4381050  56.8653360  41.9300000  78.8832660  57.5144650  40.6799350
  86.8937890  57.0879560  39.6244030  86.2946780  57.8115360  39.4407650
  87.4417500  57.0256340  38.8420480  82.1039340  57.9801770  51.6913650
  82.0082940  57.0396500  51.5414050  82.9471320  58.2016840  51.2961720
  85.5002760  55.7243100  41.6547310  85.8932330  56.0415300  40.8416000
  85.8619610  54.8454980  41.7691830  77.2349880  54.3915440  49.8447430
  76.8413270  55.2390650  50.0520210  76.5468280  53.7541810  50.0356070
  83.8094930  54.4750410  52.9144170  83.1193250  54.2822610  53.5490260
  84.5527230  54.7585050  53.4468470  74.5366930  52.3143900  43.8777510
  74.2479980  52.8846760  44.5902490  75.2812690  51.8348350  44.2408740
  74.7237160  56.2564020  35.0880230  74.6411830  57.1994780  35.2295220
  74.3720220  56.1138930  34.2092580  86.0857900  58.3148850  45.7498090
  85.3539020  58.8235660  46.0988190  85.6882240  57.4978830  45.4486870
  82.5235290  54.9903050  44.1550580  82.5271350  54.5493000  43.3055120
  83.4186410  55.3120380  44.2622400  78.3737670  54.8729540  43.1144790
  78.0337720  55.3504770  43.8711840  77.6114990  54.4194660  42.7545890
  82.5855440  55.9915130  37.1457340  82.7068260  55.9501610  38.0943160
  82.2003950  56.8539280  36.9904070  86.5483810  53.7682530  45.1621030
  86.5656550  54.2191180  46.0062880  86.2999390  52.8688170  45.3754470
  81.5976940  58.3016270  36.5440640  81.0293840  57.8534520  35.9176550
  82.3065940  58.6609050  36.0105790  89.9754560  51.1814710  51.0007410
  90.3000330  50.4504370  51.5265390  90.0111070  50.8628350  50.0988400
  76.6746120  62.2028290  50.4207370  76.2900910  61.5621960  51.0190330
  76.9858310  62.9064410  50.9902100  82.8243260  59.0504830  45.9015990
  83.1913390  58.5763400  46.6477330  82.6348320  59.9246400  46.2424330
  75.6883750  53.7948520  42.0309460  75.4030670  53.4304190  42.8688080
  75.6262610  53.0628980  41.4172600  80.6142630  58.0913470  48.2200200
  80.3099700  58.9705450  48.4450560  81.5689090  58.1513260  48.2557640
  79.1424420  62.2974460  38.8167050  78.3686680  61.7572080  38.6565770
  79.8719050  61.7781070  38.4784810  89.9012400  61.2939820  44.6093440
  90.6211520  61.7895110  44.2189550  89.6994220  60.6157710  43.9647310
  85.3622340  52.6877780  38.7522830  84.5486950  52.1890950  38.6768140
  85.1684290  53.5276030  38.3359180  85.2831200  61.3648880  50.4962440
  85.2168510  60.4444550  50.2420030  84.6536340  61.4624320  51.2107080
  88.0770730  57.0597430  37.0484990  88.9650350  57.3714660  36.8736330
  88.0475820  56.1869680  36.6565570  79.1861820  61.9654840  42.4545860
  79.7040490  61.1623100  42.4002750  78.7345840  61.9033980  43.2962690
  84.0731320  63.2321120  37.7273160  84.4147020  63.9763350  37.2316480
  83.2444030  63.5452240  38.0897990  76.6706360  58.9316210  49.3671560
  76.3121300  59.5970060  49.9544900  76.3760920  58.0999760  49.7384180
  79.8719480  59.3900450  52.2511110  79.5719620  59.5357630  51.3538930
  80.6430720  58.8305740  52.1584500  85.2147930  64.1869450  50.2466240
  85.2292470  63.2550410  50.0285150  84.5073030  64.2729210  50.8856010
  86.9558730  62.5536960  43.0918670  87.3082550  61.9565090  42.4320040
  86.0721060  62.2281190  43.2626920  83.0422010  63.3134650  40.4989080
  83.7293140  63.8603860  40.8796670  82.2554430  63.8575380  40.5338690
  75.1814410  58.9307470  35.9906160  76.0509260  59.2132270  36.2742080
  74.6904730  59.7443340  35.8754970  82.3449220  60.3180680  40.1114440
  82.8012000  61.1285930  40.3374630  81.9937430  60.0003820  40.9432930
  84.6481830  65.8287020  47.3406740  85.2924050  66.0346400  48.0180160
  85.0111270  65.0675420  46.8877590  78.2461000  50.6618330  40.5836960
  78.1175630  50.6536230  41.5321880  77.4223020  51.0001420  40.2327970
  85.9213910  63.8319370  46.0584190  86.5636140  63.1312530  46.1716360
  86.4463260  64.6117810  45.8781080  89.7669630  64.1167990  35.7823330
  89.5407210  63.3998430  36.3747970  89.3765830  63.8680430  34.9445080
  87.6951530  64.6314270  49.2620250  88.0307770  65.2180960  49.9398170
  86.7751870  64.5006980  49.4918040  75.5485660  68.1434850  36.5567790
  75.9083300  68.7424190  35.9025060  75.4078000  68.6894740  37.3302820
  75.2454930  52.4209450  50.0443660  74.5313450  52.6206370  50.6496270
  75.6649970  51.6449020  50.4158460  89.3485880  62.0339930  37.4437490
  89.0607580  62.4952620  38.2315370  90.1438050  61.5737700  37.7121710
  75.5327520  66.4089710  51.0310190  75.6418640  65.4684450  50.8905580
  74.8808080  66.6744460  50.3823920  83.5240110  64.6805600  52.4308310
  83.2036980  63.9614840  52.9754000  82.8498470  65.3560670  52.5044370
  81.5654280  65.5266050  37.3741460  81.5564380  66.2595740  36.7585970
  80.6452640  65.2797630  37.4668420  77.1660920  60.7480940  38.1188220
  76.5588870  61.4879840  38.1283520  77.6410270  60.8380300  37.2926420
  86.7393710  54.9131760  47.7945110  87.1074530  54.0926970  48.1224680
  85.8791910  54.9733650  48.2100760  90.1055740  53.8688700  38.6032670
  89.4768900  53.9734370  37.8890900  89.6107660  54.0885480  39.3926550
  84.5513880  65.5894290  36.0366650  84.6525860  65.3858280  35.1068630
  83.6515620  65.3352570  36.2414430  82.0739770  56.1474650  40.0190550
  81.3655920  56.6160990  40.4604160  82.3584250  55.4896660  40.6535740
  83.6995700  57.5671350  48.0183080  84.1980950  58.0417170  48.6834930
  83.8418650  56.6434870  48.2253110  86.1055200  52.8725310  41.4586340
  85.9822980  52.8911440  40.5095850  87.0539760  52.9204250  41.5784740
  83.1931990  68.1080610  40.7314320  83.4473490  68.0702000  39.8093690
  82.2444470  67.9813940  40.7242570  80.2774790  54.4559730  37.3941260
  81.1265320  54.8929880  37.3281450  79.9106060  54.7679990  38.2213320
  89.1984570  59.0272490  42.3072830  88.2574710  59.0422720  42.4820520
  89.5128640  58.2408450  42.7533130  79.1766210  60.7092090  35.8676790
  79.9429480  60.5973450  36.4302220  79.2540900  60.0130060  35.2153560
  77.8712970  58.1417160  36.5509680  77.9516560  57.1944670  36.6627080
  78.7632720  58.4724040  36.6570340  78.6727680  68.2912550  43.6544220
  79.4090160  67.7428010  43.9252790  79.0568600  69.1568560  43.5150210
  75.5573160  64.3586120  39.5285730  74.6312940  64.6007260  39.5191140
  76.0229590  65.1860380  39.4070480  77.6785960  67.4758620  52.8429800
  78.4798690  67.7970670  53.2565200  77.1637780  67.1154200  53.5649710
  81.7829990  67.4642860  35.4769790  82.5758600  67.7531690  35.0251580
  81.2634340  67.0335030  34.7982270  86.5150590  63.5838490  52.7905210
  85.9088750  63.6070090  52.0500960  86.2104700  62.8521530  53.3272460
  87.9450960  67.3118780  51.4014620  88.8972710  67.2276800  51.3514860
  87.7979180  67.9760490  52.0748410  75.3983770  59.9632080  51.7865850
  75.9022790  59.3839360  52.3582080  74.6591190  60.2472310  52.3242220
  82.3007390  62.6846270  35.3412140  82.1958030  62.0698620  36.0673520
  82.1331610  62.1612160  34.5575150  82.4521710  61.3703070  51.3201370
  81.6867380  61.9388070  51.2356040  82.6337670  61.0779280  50.4269600
  85.5410120  61.7466300  35.9454130  84.9920220  62.1935600  36.5896870
  86.1629380  61.2415550  36.4691800  89.5945060  63.1008400  51.8776390
  90.3354530  63.4384160  51.3743850  88.8317740  63.2700460  51.3246160
  77.4306850  58.1061670  52.6815920  77.4712190  57.8075540  53.5901150
  78.2852350  58.5069280  52.5223440  81.2085240  60.7057220  37.8419430
  81.6301660  60.5397090  38.6850820  81.3336080  59.8957450  37.3474570
  79.3712660  56.6853770  50.6490410  78.8409120  56.1944720  50.0213750
  80.0400730  57.1137970  50.1148340  83.7212880  59.7294830  35.0896530
  84.2418540  59.0143850  34.7237680  84.3681280  60.3680700  35.3897040
  88.2690720  61.1523230  50.4131600  88.6831740  61.3068310  51.2622020
  87.3341720  61.2778450  50.5757380  88.7412890  58.4919390  52.4170750
  89.3233660  57.7371710  52.3291230  88.9174660  59.0226830  51.6402230
  79.8584960  53.6516140  50.7287700  79.7641830  53.0336890  50.0038570
  79.2782350  54.3782430  50.5017610  82.6246400  52.2089380  47.7615090
  82.1763700  52.2313640  46.9160640  81.9911600  51.8108400  48.3585390
  83.0305950  61.1043710  48.3827530  83.4494060  61.9476440  48.2103770
  82.1114580  61.2415750  48.1534310  85.3669850  58.8359890  49.7665370
  85.4866060  58.2401030  50.5060210  86.2263850  58.8729580  49.3466670
  87.7057750  59.3897080  48.3427880  87.1792970  59.9139700  47.7393020
  88.0489090  60.0224470  48.9737610  80.1044140  56.7790450  34.7877590
  79.9033200  55.9157810  35.1490930  79.9336190  56.6923810  33.8499190
  80.8813370  67.4096720  49.4985260  80.3434460  68.1342780  49.1793960
  81.1347330  66.9327060  48.7082600  82.1338620  55.3781240  51.0241190
  82.7238310  55.0697090  51.7119010  81.3158860  54.9060990  51.1801090
  86.9532050  54.9947050  51.2574210  86.2647570  54.3328590  51.1924200
  87.6738070  54.5485320  51.7022670  87.5832450  51.5898680  37.3164470
  87.8634740  50.7466580  37.6723890  86.8098180  51.8221790  37.8303220
  78.9026940  53.8791070  34.7755470  79.2052840  53.8858500  33.8674620
  79.6421530  53.5288930  35.2723130  83.7375580  68.6447930  49.7571910
  83.6634280  69.5483070  50.0644280  82.8354420  68.3259830  49.7293980
  82.1211870  52.8225690  35.7611670  81.7733870  52.1449680  35.1814120
  82.3224640  52.3615200  36.5755060  84.2860910  67.8106440  37.3798270
  85.1811700  68.1491410  37.4017030  84.3178540  67.0885850  36.7522550
  77.9257070  63.1833490  35.6085270  78.3631940  63.7263160  36.2642850
  78.4104800  62.3580440  35.6181610  75.1402870  65.9722520  43.0605530
  75.4705880  65.1043580  42.8284170  75.5693870  66.1781040  43.8910490
  79.7364790  64.3031530  40.7207500  79.4360330  64.1796500  41.6211410
  79.6302280  63.4440120  40.3123230  75.6293080  66.8393110  45.7987160
  75.1924070  67.0193910  46.6311310  76.1970760  67.5967730  45.6568880
  75.4617510  59.3513340  42.1576040  74.8066350  59.0824980  41.5135740
  76.2995460  59.2417820  41.7078020  89.9506900  63.0662090  48.1840630
  89.1366740  63.4959250  48.4466420  90.3581100  63.6780500  47.5709680
  88.4107950  54.1454630  36.3794530  88.8292830  53.9585610  35.5391190
  88.1044010  53.2933680  36.6897460  76.4993440  59.7365910  46.6979380
  76.8666480  59.6493310  47.5775400  75.9304260  58.9732460  46.5986240
  76.0509440  56.6475000  50.6037800  75.1565490  56.6141760  50.9431510
  76.5906990  56.8461790  51.3689050  89.7385370  53.4306720  52.4889550
  90.6155550  53.4390120  52.8723550  89.7506210  52.6937560  51.8781900
  74.6755590  56.5612270  38.1001370  73.7719670  56.8242470  37.9253030
  75.1596210  56.8323440  37.3201330  77.2182800  55.6177810  36.0095750
  77.9274500  55.1961030  35.5243030  76.5022740  55.6853040  35.3779100
  76.8656960  51.6717140  35.0498400  77.5885090  52.2126080  35.3679620
  77.1381480  51.3980560  34.1739940  76.5549150  50.9223330  44.9521020
  77.2025340  50.3720710  44.5116180  76.9750990  51.1766480  45.7736830
  90.0082950  67.8180690  41.7108900  90.6042020  67.4965260  41.0343320
  90.2661100  67.3452510  42.5022170  76.3081150  51.0779000  47.6946340
  75.9595970  51.5342820  48.4604520  75.9768850  50.1836130  47.7768770
  77.9145520  64.2498600  51.8599530  77.8715150  63.8791510  52.7413990
  78.0456530  65.1876170  52.0001350  81.6151550  65.8058190  47.4609250
  81.3742910  66.0732750  46.5739770  82.5554190  65.9763920  47.5160110
  83.8205970  52.2690880  51.2165760  83.7594860  52.8612710  51.9661170
  84.7606350  52.1616840  51.0716020  86.4580530  51.9260940  50.8558050
  87.0720940  52.2440230  50.1939130  87.0030090  51.4409530  51.4753910
  76.9801790  50.6055200  50.9697110  77.5284780  50.4243250  50.2063220
  77.0457100  49.8149310  51.5053420  77.7533550  67.1960850  48.9797310
  77.1593870  67.0645550  49.7187350  77.7457390  66.3598990  48.5139410
  87.1988570  50.4893080  47.1827340  86.3248410  50.8228190  46.9800270
  87.0899320  50.0166260  48.0079210  88.1060550  52.6963950  48.5669060
  87.7773910  51.8815710  48.1870790  89.0542850  52.6533760  48.4434750
  90.5595160  68.4675990  45.5406630  90.0998130  69.2191800  45.1664650
  89.9307620  67.7482460  45.4821430  77.3845780  64.5619230  47.9305350
  76.6579840  63.9424520  47.8631300  77.4454930  64.9559840  47.0603430
  80.9890880  66.7764230  44.7154760  81.5055900  66.1651590  44.1903020
  81.6388260  67.2793010  45.2065770  83.7286380  67.6672720  45.5423740
  84.0164190  67.4127020  44.6656750  84.2409600  67.1150080  46.1329310
  84.9463390  51.4062920  46.1220250  84.1635180  51.8808420  46.4017010
  84.6526320  50.5017750  46.0133430  89.4984460  52.1086020  44.1669340
  89.9392550  52.0531120  43.3190940  89.2292050  53.0244030  44.2379520
  75.6675780  67.8793620  41.1402110  75.4997820  67.2464300  41.8384000
  74.8010290  68.0853020  40.7896300  76.2903800  51.7110400  38.6433970
  77.0483160  51.8239280  38.0698000  75.8280970  52.5479600  38.5977400
  82.8317610  53.8249670  41.6336280  82.0192120  53.4506560  41.2932160
  83.3359250  53.0694750  41.9357470  87.3342590  50.4892120  42.8719350
  87.9371960  51.0612330  43.3467870  86.5935580  51.0531560  42.6493250
  90.4777190  50.8913680  38.1459630  90.6727820  51.7897130  38.4127060
  89.6907060  50.6600760  38.6392580  77.2738480  66.5726850  38.5852250
  76.7486100  66.9534880  37.8814210  77.1983060  67.1977620  39.3061960
  78.6628950  52.2374450  37.1835940  79.1921710  51.4504250  37.0543890
  79.2957270  52.9165640  37.4171470  80.8566790  51.9749590  40.2381330
  80.2269530  51.2736900  40.4051460  80.3171930  52.7353720  40.0214490
  83.7958740  68.5888820  52.9091940  84.7226050  68.3533090  52.9527900
  83.7809170  69.4160820  52.4277970  80.9822350  51.2533570  52.6733820
  80.7006620  51.7567170  51.9094640  81.3642050  50.4555320  52.3075950
  79.8731450  68.5209230  37.4601500  80.6050270  68.2368510  36.9125390
  80.1325120  68.2822510  38.3500880  79.0346240  64.6373960  37.4647830
  78.4055120  65.1059060  38.0133660  79.1494070  63.7923180  37.8994020
  87.5837810  50.6687150  53.2514290  87.4703260  50.9881760  54.1465810
  88.4007550  51.0699660  52.9551570  86.4895960  58.6879620  23.6149030
  86.4090010  57.7734230  23.3440740  86.0760380  59.1846690  22.9088740
  84.6214000  60.4658640  25.4958300  83.8456100  59.9859080  25.7856870
  85.2726930  59.7864290  25.3214460  78.6379830  60.7778450  26.3734060
  77.8064710  60.5227160  26.7730570  79.2460810  60.8489220  27.1091980
  88.6421430  64.8718830  24.2757430  88.1802960  64.1006070  24.6044600
  89.4546980  64.8984900  24.7809880  78.6181090  64.8118540  26.5692080
  78.9209130  63.9216280  26.3902300  79.3624680  65.3688760  26.3414330
  77.0471780  55.7380340  20.1576450  76.1588480  56.0796310  20.0556330
  77.3312970  55.5380660  19.2657280  75.0104790  58.3385990  26.0416150
  75.5820900  57.5708190  26.0419790  75.0106330  58.6374750  25.1322760
  84.8684740  67.1576840  23.8961420  84.2496180  67.6134340  23.3255860
  85.7236520  67.3128300  23.4951120  84.0622990  63.1415830  25.5028460
  83.9931270  62.2005770  25.3417590  84.8242850  63.2317240  26.0751030
  76.2529660  53.7470350  27.8285080  76.0732500  52.8496100  28.1087840
  75.8509740  54.2942220  28.5032030  85.0928160  55.9486210  25.7297390
  85.4692980  55.0758090  25.6171060  84.9947670  56.2844910  24.8387830
  79.2233170  54.3211840  21.1914830  79.3299920  55.2215570  21.4983590
  78.3125530  54.2729810  20.9009480  88.8752280  53.4436650  22.6625730
  89.6961900  52.9533220  22.7051210  88.9086360  54.0334310  23.4157570
  76.8716330  56.2430850  26.4367420  77.5526440  56.5069220  27.0554820
  76.5564380  55.4031720  26.7705430  81.0640900  57.2898210  25.5240010
  81.5719120  57.7879180  26.1645030  81.5954140  56.5133410  25.3479370
  79.3477000  51.9296770  29.7903430  79.3495440  52.4469160  28.9849330
  78.5181310  51.4526950  29.7673360  85.7348090  62.0416080  21.2893330
  85.1165360  62.5065530  20.7256050  86.2471340  62.7343560  21.7062840
  80.5979850  61.5691950  27.9676930  80.2649230  62.1960870  28.6098000
  80.7746530  62.0953830  27.1878600  89.1113760  55.3837030  25.4353270
  88.4069330  55.6721920  26.0156380  89.4725920  56.1937140  25.0752830
  79.0292330  53.6406730  27.7973880  79.3709140  54.4848780  27.5027750
  78.0908140  53.7890470  27.9139220  79.8098950  63.5372750  29.7826110
  80.4272950  64.2123830  29.5010560  78.9492070  63.9460730  29.6913610
  75.1031290  62.7272610  18.6632960  74.7259270  63.2159710  17.9317860
  75.3604360  63.3997890  19.2939490  82.7120220  51.1289000  24.1218470
  83.0195200  50.5735890  23.4053970  81.7820920  51.2633460  23.9391460
  88.2635280  66.8456290  26.4125930  88.2762440  66.4418580  25.5448190
  87.7110500  67.6203580  26.3087360  89.5580700  63.5672510  21.5016100
  89.4477030  62.6246840  21.6265520  89.5548950  63.9288150  22.3878860
  87.6620720  61.7486130  27.7408540  88.0789510  61.5346240  26.9062000
  88.3860540  62.0058920  28.3117160  85.1000980  59.1937830  20.8578590
  84.1730260  59.1275210  21.0867060  85.2525800  60.1317960  20.7433830
  85.0870060  55.4654830  17.8545750  84.1473730  55.6268790  17.9398210
  85.4053320  56.1840510  17.3081740  89.1298270  60.7558130  21.3613840
  88.5110690  60.4177680  20.7140140  89.1122720  60.1117890  22.0693030
  88.5724830  56.9342670  28.7779650  88.1596010  57.7596380  29.0319640
  87.8400780  56.3487710  28.5856010  80.7057620  59.7202570  23.6398320
  80.3014620  59.0079820  23.1444220  80.7920740  59.3755810  24.5286360
  81.1739320  63.4070130  25.8037530  80.8767610  62.8015600  25.1245310
  82.1239140  63.4447440  25.6926890  79.4186240  56.4945780  27.4197360
  79.9700830  56.6041120  26.6450610  79.9329750  56.8683380  28.1352590
  89.2624930  66.9802000  29.4660630  88.7855490  67.7874190  29.2733240
  88.5786720  66.3280330  29.6186840  80.2657750  63.1451820  32.4545330
  79.3686280  63.3691790  32.7018730  80.2910620  63.2686760  31.5056730
  87.3062970  59.9944940  18.3686590  87.7456250  59.1567370  18.2224410
  88.0191390  60.6274340  18.4550730  79.0928970  60.0165140  31.0302700
  78.9536740  60.8887940  31.3990100  78.2110330  59.6737950  30.8850640
  85.4158350  64.9341010  22.3367830  85.8554260  65.6765340  21.9223220
  85.3545240  65.1767580  23.2606790  80.8909320  65.9586840  33.2387850
  80.8624750  66.3629790  32.3716280  80.7274290  65.0297200  33.0759450
  77.4062250  58.6147550  21.1404970  77.2859850  59.3409640  20.5286240
  77.0963140  57.8450460  20.6632880  75.0447620  61.7862690  26.9473610
  75.1228040  61.9211460  26.0029330  75.6589300  61.0778580  27.1401730
  76.2895250  63.4862880  23.3579790  75.8823330  63.6277470  22.5033390
  77.1808260  63.2023040  23.1551000  86.1074130  67.6354790  30.2646840
  86.6218800  67.5462800  31.0669270  85.2643210  67.9814490  30.5574750
  88.0828530  67.9210130  19.6930840  87.9229670  67.6313070  20.5912670
  87.9175240  67.1450260  19.1576070  80.5616910  67.7008660  21.4702460
  80.3859390  66.7844200  21.2570260  79.7072650  68.0595950  21.7100260
  87.7854660  65.4297690  18.2528840  87.0919820  65.4274980  17.5931120
  88.5277520  65.0057010  17.8223010  87.3504590  67.0560400  22.3277330
  87.8061540  66.2749780  22.6415950  87.6897110  67.7667220  22.8718510
  75.1007140  62.8276860  29.4868070  75.2638180  62.3582220  28.6687440
  75.5659590  62.3200420  30.1516910  79.8725910  51.9582620  24.5228640
  79.4294060  52.7392160  24.1913160  80.4310900  52.2812510  25.2299580
  84.1595720  54.8251140  30.1263960  83.6975090  55.0334160  30.9383900
  83.7573830  54.0110490  29.8234630  89.1600230  56.0460090  31.2560620
  88.3093820  55.7465840  31.5769690  89.0002020  56.2902100  30.3444440
  86.2549940  57.5461840  33.3559410  86.5803350  56.7125590  33.0161640
  87.0430270  58.0690360  33.5037740  82.9884730  51.5793320  19.4034470
  82.3638910  51.5753190  20.1287780  82.9014850  50.7124280  19.0070440
  81.9101810  52.5029950  26.3818240  82.2074140  53.4092780  26.3010260
  82.4587370  52.0148730  25.7677810  79.6640130  57.0816190  22.2509890
  79.4381050  56.8653360  23.1556510  78.8832660  57.5144650  21.9055860
  86.8937890  57.0879560  20.8500540  86.2946780  57.8115360  20.6664160
  87.4417500  57.0256340  20.0676990  82.1039340  57.9801770  32.9170160
  82.0082940  57.0396500  32.7670560  82.9471320  58.2016840  32.5218230
  85.5002760  55.7243100  22.8803820  85.8932330  56.0415300  22.0672510
  85.8619610  54.8454980  22.9948340  77.2349880  54.3915440  31.0703940
  76.8413270  55.2390650  31.2776720  76.5468280  53.7541810  31.2612580
  83.8094930  54.4750410  34.1400680  83.1193250  54.2822610  34.7746770
  84.5527230  54.7585050  34.6724980  74.5366930  52.3143900  25.1034020
  74.2479980  52.8846760  25.8159000  75.2812690  51.8348350  25.4665250
  74.7237160  56.2564020  16.3136740  74.6411830  57.1994780  16.4551730
  74.3720220  56.1138930  15.4349090  86.0857900  58.3148850  26.9754600
  85.3539020  58.8235660  27.3244700  85.6882240  57.4978830  26.6743380
  82.5235290  54.9903050  25.3807090  82.5271350  54.5493000  24.5311630
  83.4186410  55.3120380  25.4878910  78.3737670  54.8729540  24.3401300
  78.0337720  55.3504770  25.0968350  77.6114990  54.4194660  23.9802400
  82.5855440  55.9915130  18.3713850  82.7068260  55.9501610  19.3199670
  82.2003950  56.8539280  18.2160580  86.5483810  53.7682530  26.3877540
  86.5656550  54.2191180  27.2319390  86.2999390  52.8688170  26.6010980
  81.5976940  58.3016270  17.7697150  81.0293840  57.8534520  17.1433060
  82.3065940  58.6609050  17.2362300  89.9754560  51.1814710  32.2263920
  90.3000330  50.4504370  32.7521900  90.0111070  50.8628350  31.3244910
  76.6746120  62.2028290  31.6463880  76.2900910  61.5621960  32.2446840
  76.9858310  62.9064410  32.2158610  82.8243260  59.0504830  27.1272500
  83.1913390  58.5763400  27.8733840  82.6348320  59.9246400  27.4680840
  75.6883750  53.7948520  23.2565970  75.4030670  53.4304190  24.0944590
  75.6262610  53.0628980  22.6429110  80.6142630  58.0913470  29.4456710
  80.3099700  58.9705450  29.6707070  81.5689090  58.1513260  29.4814150
  79.1424420  62.2974460  20.0423560  78.3686680  61.7572080  19.8822280
  79.8719050  61.7781070  19.7041320  89.9012400  61.2939820  25.8349950
  90.6211520  61.7895110  25.4446060  89.6994220  60.6157710  25.1903820
  85.3622340  52.6877780  19.9779340  84.5486950  52.1890950  19.9024650
  85.1684290  53.5276030  19.5615690  85.2831200  61.3648880  31.7218950
  85.2168510  60.4444550  31.4676540  84.6536340  61.4624320  32.4363590
  88.0770730  57.0597430  18.2741500  88.9650350  57.3714660  18.0992840
  88.0475820  56.1869680  17.8822080  79.1861820  61.9654840  23.6802370
  79.7040490  61.1623100  23.6259260  78.7345840  61.9033980  24.5219200
  84.0731320  63.2321120  18.9529670  84.4147020  63.9763350  18.4572990
  83.2444030  63.5452240  19.3154500  76.6706360  58.9316210  30.5928070
  76.3121300  59.5970060  31.1801410  76.3760920  58.0999760  30.9640690
  79.8719480  59.3900450  33.4767620  79.5719620  59.5357630  32.5795440
  80.6430720  58.8305740  33.3841010  85.2147930  64.1869450  31.4722750
  85.2292470  63.2550410  31.2541660  84.5073030  64.2729210  32.1112520
  86.9558730  62.5536960  24.3175180  87.3082550  61.9565090  23.6576550
  86.0721060  62.2281190  24.4883430  83.0422010  63.3134650  21.7245590
  83.7293140  63.8603860  22.1053180  82.2554430  63.8575380  21.7595200
  75.1814410  58.9307470  17.2162670  76.0509260  59.2132270  17.4998590
  74.6904730  59.7443340  17.1011480  82.3449220  60.3180680  21.3370950
  82.8012000  61.1285930  21.5631140  81.9937430  60.0003820  22.1689440
  84.6481830  65.8287020  28.5663250  85.2924050  66.0346400  29.2436670
  85.0111270  65.0675420  28.1134100  78.2461000  50.6618330  21.8093470
  78.1175630  50.6536230  22.7578390  77.4223020  51.0001420  21.4584480
  85.9213910  63.8319370  27.2840700  86.5636140  63.1312530  27.3972870
  86.4463260  64.6117810  27.1037590  89.7669630  64.1167990  17.0079840
  89.5407210  63.3998430  17.6004480  89.3765830  63.8680430  16.1701590
  87.6951530  64.6314270  30.4876760  88.0307770  65.2180960  31.1654680
  86.7751870  64.5006980  30.7174550  75.5485660  68.1434850  17.7824300
  75.9083300  68.7424190  17.1281570  75.4078000  68.6894740  18.5559330
  75.2454930  52.4209450  31.2700170  74.5313450  52.6206370  31.8752780
  75.6649970  51.6449020  31.6414970  89.3485880  62.0339930  18.6694000
  89.0607580  62.4952620  19.4571880  90.1438050  61.5737700  18.9378220
  75.5327520  66.4089710  32.2566700  75.6418640  65.4684450  32.1162090
  74.8808080  66.6744460  31.6080430  83.5240110  64.6805600  33.6564820
  83.2036980  63.9614840  34.2010510  82.8498470  65.3560670  33.7300880
  81.5654280  65.5266050  18.5997970  81.5564380  66.2595740  17.9842480
  80.6452640  65.2797630  18.6924930  77.1660920  60.7480940  19.3444730
  76.5588870  61.4879840  19.3540030  77.6410270  60.8380300  18.5182930
  86.7393710  54.9131760  29.0201620  87.1074530  54.0926970  29.3481190
  85.8791910  54.9733650  29.4357270  90.1055740  53.8688700  19.8289180
  89.4768900  53.9734370  19.1147410  89.6107660  54.0885480  20.6183060
  84.5513880  65.5894290  17.2623160  84.6525860  65.3858280  16.3325140
  83.6515620  65.3352570  17.4670940  82.0739770  56.1474650  21.2447060
  81.3655920  56.6160990  21.6860670  82.3584250  55.4896660  21.8792250
  83.6995700  57.5671350  29.2439590  84.1980950  58.0417170  29.9091440
  83.8418650  56.6434870  29.4509620  86.1055200  52.8725310  22.6842850
  85.9822980  52.8911440  21.7352360  87.0539760  52.9204250  22.8041250
  83.1931990  68.1080610  21.9570830  83.4473490  68.0702000  21.0350200
  82.2444470  67.9813940  21.9499080  80.2774790  54.4559730  18.6197770
  81.1265320  54.8929880  18.5537960  79.9106060  54.7679990  19.4469830
  89.1984570  59.0272490  23.5329340  88.2574710  59.0422720  23.7077030
  89.5128640  58.2408450  23.9789640  79.1766210  60.7092090  17.0933300
  79.9429480  60.5973450  17.6558730  79.2540900  60.0130060  16.4410070
  77.8712970  58.1417160  17.7766190  77.9516560  57.1944670  17.8883590
  78.7632720  58.4724040  17.8826850  78.6727680  68.2912550  24.8800730
  79.4090160  67.7428010  25.1509300  79.0568600  69.1568560  24.7406720
  75.5573160  64.3586120  20.7542240  74.6312940  64.6007260  20.7447650
  76.0229590  65.1860380  20.6326990  77.6785960  67.4758620  34.0686310
  78.4798690  67.7970670  34.4821710  77.1637780  67.1154200  34.7906220
  81.7829990  67.4642860  16.7026300  82.5758600  67.7531690  16.2508090
  81.2634340  67.0335030  16.0238780  86.5150590  63.5838490  34.0161720
  85.9088750  63.6070090  33.2757470  86.2104700  62.8521530  34.5528970
  87.9450960  67.3118780  32.6271130  88.8972710  67.2276800  32.5771370
  87.7979180  67.9760490  33.3004920  75.3983770  59.9632080  33.0122360
  75.9022790  59.3839360  33.5838590  74.6591190  60.2472310  33.5498730
  82.3007390  62.6846270  16.5668650  82.1958030  62.0698620  17.2930030
  82.1331610  62.1612160  15.7831660  82.4521710  61.3703070  32.5457880
  81.6867380  61.9388070  32.4612550  82.6337670  61.0779280  31.6526110
  85.5410120  61.7466300  17.1710640  84.9920220  62.1935600  17.8153380
  86.1629380  61.2415550  17.6948310  89.5945060  63.1008400  33.1032900
  90.3354530  63.4384160  32.6000360  88.8317740  63.2700460  32.5502670
  77.4306850  58.1061670  33.9072430  77.4712190  57.8075540  34.8157660
  78.2852350  58.5069280  33.7479950  81.2085240  60.7057220  19.0675940
  81.6301660  60.5397090  19.9107330  81.3336080  59.8957450  18.5731080
  79.3712660  56.6853770  31.8746920  78.8409120  56.1944720  31.2470260
  80.0400730  57.1137970  31.3404850  83.7212880  59.7294830  16.3153040
  84.2418540  59.0143850  15.9494190  84.3681280  60.3680700  16.6153550
  88.2690720  61.1523230  31.6388110  88.6831740  61.3068310  32.4878530
  87.3341720  61.2778450  31.8013890  88.7412890  58.4919390  33.6427260
  89.3233660  57.7371710  33.5547740  88.9174660  59.0226830  32.8658740
  79.8584960  53.6516140  31.9544210  79.7641830  53.0336890  31.2295080
  79.2782350  54.3782430  31.7274120  82.6246400  52.2089380  28.9871600
  82.1763700  52.2313640  28.1417150  81.9911600  51.8108400  29.5841900
  83.0305950  61.1043710  29.6084040  83.4494060  61.9476440  29.4360280
  82.1114580  61.2415750  29.3790820  85.3669850  58.8359890  30.9921880
  85.4866060  58.2401030  31.7316720  86.2263850  58.8729580  30.5723180
  87.7057750  59.3897080  29.5684390  87.1792970  59.9139700  28.9649530
  88.0489090  60.0224470  30.1994120  80.1044140  56.7790450  16.0134100
  79.9033200  55.9157810  16.3747440  79.9336190  56.6923810  15.0755700
  80.8813370  67.4096720  30.7241770  80.3434460  68.1342780  30.4050470
  81.1347330  66.9327060  29.9339110  82.1338620  55.3781240  32.2497700
  82.7238310  55.0697090  32.9375520  81.3158860  54.9060990  32.4057600
  86.9532050  54.9947050  32.4830720  86.2647570  54.3328590  32.4180710
  87.6738070  54.5485320  32.9279180  87.5832450  51.5898680  18.5420980
  87.8634740  50.7466580  18.8980400  86.8098180  51.8221790  19.0559730
  78.9026940  53.8791070  16.0011980  79.2052840  53.8858500  15.0931130
  79.6421530  53.5288930  16.4979640  83.7375580  68.6447930  30.9828420
  83.6634280  69.5483070  31.2900790  82.8354420  68.3259830  30.9550490
  82.1211870  52.8225690  16.9868180  81.7733870  52.1449680  16.4070630
  82.3224640  52.3615200  17.8011570  84.2860910  67.8106440  18.6054780
  85.1811700  68.1491410  18.6273540  84.3178540  67.0885850  17.9779060
  77.9257070  63.1833490  16.8341780  78.3631940  63.7263160  17.4899360
  78.4104800  62.3580440  16.8438120  75.1402870  65.9722520  24.2862040
  75.4705880  65.1043580  24.0540680  75.5693870  66.1781040  25.1167000
  79.7364790  64.3031530  21.9464010  79.4360330  64.1796500  22.8467920
  79.6302280  63.4440120  21.5379740  75.6293080  66.8393110  27.0243670
  75.1924070  67.0193910  27.8567820  76.1970760  67.5967730  26.8825390
  75.4617510  59.3513340  23.3832550  74.8066350  59.0824980  22.7392250
  76.2995460  59.2417820  22.9334530  89.9506900  63.0662090  29.4097140
  89.1366740  63.4959250  29.6722930  90.3581100  63.6780500  28.7966190
  88.4107950  54.1454630  17.6051040  88.8292830  53.9585610  16.7647700
  88.1044010  53.2933680  17.9153970  76.4993440  59.7365910  27.9235890
  76.8666480  59.6493310  28.8031910  75.9304260  58.9732460  27.8242750
  76.0509440  56.6475000  31.8294310  75.1565490  56.6141760  32.1688020
  76.5906990  56.8461790  32.5945560  89.7385370  53.4306720  33.7146060
  90.6155550  53.4390120  34.0980060  89.7506210  52.6937560  33.1038410
  74.6755590  56.5612270  19.3257880  73.7719670  56.8242470  19.1509540
  75.1596210  56.8323440  18.5457840  77.2182800  55.6177810  17.2352260
  77.9274500  55.1961030  16.7499540  76.5022740  55.6853040  16.6035610
  76.8656960  51.6717140  16.2754910  77.5885090  52.2126080  16.5936130
  77.1381480  51.3980560  15.3996450  76.5549150  50.9223330  26.1777530
  77.2025340  50.3720710  25.7372690  76.9750990  51.1766480  26.9993340
  90.0082950  67.8180690  22.9365410  90.6042020  67.4965260  22.2599830
  90.2661100  67.3452510  23.7278680  76.3081150  51.0779000  28.9202850
  75.9595970  51.5342820  29.6861030  75.9768850  50.1836130  29.0025280
  77.9145520  64.2498600  33.0856040  77.8715150  63.8791510  33.9670500
  78.0456530  65.1876170  33.2257860  81.6151550  65.8058190  28.6865760
  81.3742910  66.0732750  27.7996280  82.5554190  65.9763920  28.7416620
  83.8205970  52.2690880  32.4422270  83.7594860  52.8612710  33.1917680
  84.7606350  52.1616840  32.2972530  86.4580530  51.9260940  32.0814560
  87.0720940  52.2440230  31.4195640  87.0030090  51.4409530  32.7010420
  76.9801790  50.6055200  32.1953620  77.5284780  50.4243250  31.4319730
  77.0457100  49.8149310  32.7309930  77.7533550  67.1960850  30.2053820
  77.1593870  67.0645550  30.9443860  77.7457390  66.3598990  29.7395920
  87.1988570  50.4893080  28.4083850  86.3248410  50.8228190  28.2056780
  87.0899320  50.0166260  29.2335720  88.1060550  52.6963950  29.7925570
  87.7773910  51.8815710  29.4127300  89.0542850  52.6533760  29.6691260
  90.5595160  68.4675990  26.7663140  90.0998130  69.2191800  26.3921160
  89.9307620  67.7482460  26.7077940  77.3845780  64.5619230  29.1561860
  76.6579840  63.9424520  29.0887810  77.4454930  64.9559840  28.2859940
  80.9890880  66.7764230  25.9411270  81.5055900  66.1651590  25.4159530
  81.6388260  67.2793010  26.4322280  83.7286380  67.6672720  26.7680250
  84.0164190  67.4127020  25.8913260  84.2409600  67.1150080  27.3585820
  84.9463390  51.4062920  27.3476760  84.1635180  51.8808420  27.6273520
  84.6526320  50.5017750  27.2389940  89.4984460  52.1086020  25.3925850
  89.9392550  52.0531120  24.5447450  89.2292050  53.0244030  25.4636030
  75.6675780  67.8793620  22.3658620  75.4997820  67.2464300  23.0640510
  74.8010290  68.0853020  22.0152810  76.2903800  51.7110400  19.8690480
  77.0483160  51.8239280  19.2954510  75.8280970  52.5479600  19.8233910
  82.8317610  53.8249670  22.8592790  82.0192120  53.4506560  22.5188670
  83.3359250  53.0694750  23.1613980  87.3342590  50.4892120  24.0975860
  87.9371960  51.0612330  24.5724380  86.5935580  51.0531560  23.8749760
  90.4777190  50.8913680  19.3716140  90.6727820  51.7897130  19.6383570
  89.6907060  50.6600760  19.8649090  77.2738480  66.5726850  19.8108760
  76.7486100  66.9534880  19.1070720  77.1983060  67.1977620  20.5318470
  78.6628950  52.2374450  18.4092450  79.1921710  51.4504250  18.2800400
  79.2957270  52.9165640  18.6427980  80.8566790  51.9749590  21.4637840
  80.2269530  51.2736900  21.6307970  80.3171930  52.7353720  21.2471000
  83.7958740  68.5888820  34.1348450  84.7226050  68.3533090  34.1784410
  83.7809170  69.4160820  33.6534480  80.9822350  51.2533570  33.8990330
  80.7006620  51.7567170  33.1351150  81.3642050  50.4555320  33.5332460
  79.8731450  68.5209230  18.6858010  80.6050270  68.2368510  18.1381900
  80.1325120  68.2822510  19.5757390  79.0346240  64.6373960  18.6904340
  78.4055120  65.1059060  19.2390170  79.1494070  63.7923180  19.1250530
  87.5837810  50.6687150  34.4770800  87.4703260  50.9881760  35.3722320
  88.4007550  51.0699660  34.1808080  86.4895960  58.6879620   4.8405540
  86.4090010  57.7734230   4.5697250  86.0760380  59.1846690   4.1345250
  84.6214000  60.4658640   6.7214810  83.8456100  59.9859080   7.0113380
  85.2726930  59.7864290   6.5470970  78.6379830  60.7778450   7.5990570
  77.8064710  60.5227160   7.9987080  79.2460810  60.8489220   8.3348490
  88.6421430  64.8718830   5.5013940  88.1802960  64.1006070   5.8301110
  89.4546980  64.8984900   6.0066390  78.6181090  64.8118540   7.7948590
  78.9209130  63.9216280   7.6158810  79.3624680  65.3688760   7.5670840
  75.0104790  58.3385990   7.2672660  75.5820900  57.5708190   7.2676300
  75.0106330  58.6374750   6.3579270  84.8684740  67.1576840   5.1217930
  84.2496180  67.6134340   4.5512370  85.7236520  67.3128300   4.7207630
  84.0622990  63.1415830   6.7284970  83.9931270  62.2005770   6.5674100
  84.8242850  63.2317240   7.3007540  76.2529660  53.7470350   9.0541590
  76.0732500  52.8496100   9.3344350  75.8509740  54.2942220   9.7288540
  85.0928160  55.9486210   6.9553900  85.4692980  55.0758090   6.8427570
  84.9947670  56.2844910   6.0644340  79.2233170  54.3211840   2.4171340
  79.3299920  55.2215570   2.7240100  78.3125530  54.2729810   2.1265990
  88.8752280  53.4436650   3.8882240  89.6961900  52.9533220   3.9307720
  88.9086360  54.0334310   4.6414080  76.8716330  56.2430850   7.6623930
  77.5526440  56.5069220   8.2811330  76.5564380  55.4031720   7.9961940
  81.0640900  57.2898210   6.7496520  81.5719120  57.7879180   7.3901540
  81.5954140  56.5133410   6.5735880  79.3477000  51.9296770  11.0159940
  79.3495440  52.4469160  10.2105840  78.5181310  51.4526950  10.9929870
  85.7348090  62.0416080   2.5149840  85.1165360  62.5065530   1.9512560
  86.2471340  62.7343560   2.9319350  80.5979850  61.5691950   9.1933440
  80.2649230  62.1960870   9.8354510  80.7746530  62.0953830   8.4135110
  89.1113760  55.3837030   6.6609780  88.4069330  55.6721920   7.2412890
  89.4725920  56.1937140   6.3009340  79.0292330  53.6406730   9.0230390
  79.3709140  54.4848780   8.7284260  78.0908140  53.7890470   9.1395730
  79.8098950  63.5372750  11.0082620  80.4272950  64.2123830  10.7267070
  78.9492070  63.9460730  10.9170120  82.7120220  51.1289000   5.3474980
  83.0195200  50.5735890   4.6310480  81.7820920  51.2633460   5.1647970
  88.2635280  66.8456290   7.6382440  88.2762440  66.4418580   6.7704700
  87.7110500  67.6203580   7.5343870  89.5580700  63.5672510   2.7272610
  89.4477030  62.6246840   2.8522030  89.5548950  63.9288150   3.6135370
  87.6620720  61.7486130   8.9665050  88.0789510  61.5346240   8.1318510
  88.3860540  62.0058920   9.5373670  85.1000980  59.1937830   2.0835100
  84.1730260  59.1275210   2.3123570  85.2525800  60.1317960   1.9690340
  89.1298270  60.7558130   2.5870350  88.5110690  60.4177680   1.9396650
  89.1122720  60.1117890   3.2949540  88.5724830  56.9342670  10.0036160
  88.1596010  57.7596380  10.2576150  87.8400780  56.3487710   9.8112520
  80.7057620  59.7202570   4.8654830  80.3014620  59.0079820   4.3700730
  80.7920740  59.3755810   5.7542870  81.1739320  63.4070130   7.0294040
  80.8767610  62.8015600   6.3501820  82.1239140  63.4447440   6.9183400
  79.4186240  56.4945780   8.6453870  79.9700830  56.6041120   7.8707120
  79.9329750  56.8683380   9.3609100  89.2624930  66.9802000  10.6917140
  88.7855490  67.7874190  10.4989750  88.5786720  66.3280330  10.8443350
  80.2657750  63.1451820  13.6801840  79.3686280  63.3691790  13.9275240
  80.2910620  63.2686760  12.7313240  79.0928970  60.0165140  12.2559210
  78.9536740  60.8887940  12.6246610  78.2110330  59.6737950  12.1107150
  85.4158350  64.9341010   3.5624340  85.8554260  65.6765340   3.1479730
  85.3545240  65.1767580   4.4863300  80.8909320  65.9586840  14.4644360
  80.8624750  66.3629790  13.5972790  80.7274290  65.0297200  14.3015960
  77.4062250  58.6147550   2.3661480  77.2859850  59.3409640   1.7542750
  77.0963140  57.8450460   1.8889390  75.0447620  61.7862690   8.1730120
  75.1228040  61.9211460   7.2285840  75.6589300  61.0778580   8.3658240
  76.2895250  63.4862880   4.5836300  75.8823330  63.6277470   3.7289900
  77.1808260  63.2023040   4.3807510  86.1074130  67.6354790  11.4903350
  86.6218800  67.5462800  12.2925780  85.2643210  67.9814490  11.7831260
  80.5616910  67.7008660   2.6958970  80.3859390  66.7844200   2.4826770
  79.7072650  68.0595950   2.9356770  87.3504590  67.0560400   3.5533840
  87.8061540  66.2749780   3.8672460  87.6897110  67.7667220   4.0975020
  75.1007140  62.8276860  10.7124580  75.2638180  62.3582220   9.8943950
  75.5659590  62.3200420  11.3773420  79.8725910  51.9582620   5.7485150
  79.4294060  52.7392160   5.4169670  80.4310900  52.2812510   6.4556090
  84.1595720  54.8251140  11.3520470  83.6975090  55.0334160  12.1640410
  83.7573830  54.0110490  11.0491140  89.1600230  56.0460090  12.4817130
  88.3093820  55.7465840  12.8026200  89.0002020  56.2902100  11.5700950
  86.2549940  57.5461840  14.5815920  86.5803350  56.7125590  14.2418150
  87.0430270  58.0690360  14.7294250  81.9101810  52.5029950   7.6074750
  82.2074140  53.4092780   7.5266770  82.4587370  52.0148730   6.9934320
  79.6640130  57.0816190   3.4766400  79.4381050  56.8653360   4.3813020
  78.8832660  57.5144650   3.1312370  82.1039340  57.9801770  14.1426670
  82.0082940  57.0396500  13.9927070  82.9471320  58.2016840  13.7474740
  85.5002760  55.7243100   4.1060330  85.8932330  56.0415300   3.2929020
  85.8619610  54.8454980   4.2204850  77.2349880  54.3915440  12.2960450
  76.8413270  55.2390650  12.5033230  76.5468280  53.7541810  12.4869090
  83.8094930  54.4750410  15.3657190  83.1193250  54.2822610  16.0003280
  84.5527230  54.7585050  15.8981490  74.5366930  52.3143900   6.3290530
  74.2479980  52.8846760   7.0415510  75.2812690  51.8348350   6.6921760
  86.0857900  58.3148850   8.2011110  85.3539020  58.8235660   8.5501210
  85.6882240  57.4978830   7.8999890  82.5235290  54.9903050   6.6063600
  82.5271350  54.5493000   5.7568140  83.4186410  55.3120380   6.7135420
  78.3737670  54.8729540   5.5657810  78.0337720  55.3504770   6.3224860
  77.6114990  54.4194660   5.2058910  86.5483810  53.7682530   7.6134050
  86.5656550  54.2191180   8.4575900  86.2999390  52.8688170   7.8267490
  89.9754560  51.1814710  13.4520430  90.3000330  50.4504370  13.9778410
  90.0111070  50.8628350  12.5501420  76.6746120  62.2028290  12.8720390
  76.2900910  61.5621960  13.4703350  76.9858310  62.9064410  13.4415120
  82.8243260  59.0504830   8.3529010  83.1913390  58.5763400   9.0990350
  82.6348320  59.9246400   8.6937350  75.6883750  53.7948520   4.4822480
  75.4030670  53.4304190   5.3201100  75.6262610  53.0628980   3.8685620
  80.6142630  58.0913470  10.6713220  80.3099700  58.9705450  10.8963580
  81.5689090  58.1513260  10.7070660  89.9012400  61.2939820   7.0606460
  90.6211520  61.7895110   6.6702570  89.6994220  60.6157710   6.4160330
  85.2831200  61.3648880  12.9475460  85.2168510  60.4444550  12.6933050
  84.6536340  61.4624320  13.6620100  79.1861820  61.9654840   4.9058880
  79.7040490  61.1623100   4.8515770  78.7345840  61.9033980   5.7475710
  76.6706360  58.9316210  11.8184580  76.3121300  59.5970060  12.4057920
  76.3760920  58.0999760  12.1897200  79.8719480  59.3900450  14.7024130
  79.5719620  59.5357630  13.8051950  80.6430720  58.8305740  14.6097520
  85.2147930  64.1869450  12.6979260  85.2292470  63.2550410  12.4798170
  84.5073030  64.2729210  13.3369030  86.9558730  62.5536960   5.5431690
  87.3082550  61.9565090   4.8833060  86.0721060  62.2281190   5.7139940
  83.0422010  63.3134650   2.9502100  83.7293140  63.8603860   3.3309690
  82.2554430  63.8575380   2.9851710  82.3449220  60.3180680   2.5627460
  82.8012000  61.1285930   2.7887650  81.9937430  60.0003820   3.3945950
  84.6481830  65.8287020   9.7919760  85.2924050  66.0346400  10.4693180
  85.0111270  65.0675420   9.3390610  78.2461000  50.6618330   3.0349980
  78.1175630  50.6536230   3.9834900  77.4223020  51.0001420   2.6840990
  85.9213910  63.8319370   8.5097210  86.5636140  63.1312530   8.6229380
  86.4463260  64.6117810   8.3294100  87.6951530  64.6314270  11.7133270
  88.0307770  65.2180960  12.3911190  86.7751870  64.5006980  11.9431060
  75.2454930  52.4209450  12.4956680  74.5313450  52.6206370  13.1009290
  75.6649970  51.6449020  12.8671480  75.5327520  66.4089710  13.4823210
  75.6418640  65.4684450  13.3418600  74.8808080  66.6744460  12.8336940
  83.5240110  64.6805600  14.8821330  83.2036980  63.9614840  15.4267020
  82.8498470  65.3560670  14.9557390  86.7393710  54.9131760  10.2458130
  87.1074530  54.0926970  10.5737700  85.8791910  54.9733650  10.6613780
  82.0739770  56.1474650   2.4703570  81.3655920  56.6160990   2.9117180
  82.3584250  55.4896660   3.1048760  83.6995700  57.5671350  10.4696100
  84.1980950  58.0417170  11.1347950  83.8418650  56.6434870  10.6766130
  86.1055200  52.8725310   3.9099360  85.9822980  52.8911440   2.9608870
  87.0539760  52.9204250   4.0297760  83.1931990  68.1080610   3.1827340
  83.4473490  68.0702000   2.2606710  82.2444470  67.9813940   3.1755590
  89.1984570  59.0272490   4.7585850  88.2574710  59.0422720   4.9333540
  89.5128640  58.2408450   5.2046150  78.6727680  68.2912550   6.1057240
  79.4090160  67.7428010   6.3765810  79.0568600  69.1568560   5.9663230
  75.5573160  64.3586120   1.9798750  74.6312940  64.6007260   1.9704160
  76.0229590  65.1860380   1.8583500  77.6785960  67.4758620  15.2942820
  78.4798690  67.7970670  15.7078220  77.1637780  67.1154200  16.0162730
  86.5150590  63.5838490  15.2418230  85.9088750  63.6070090  14.5013980
  86.2104700  62.8521530  15.7785480  87.9450960  67.3118780  13.8527640
  88.8972710  67.2276800  13.8027880  87.7979180  67.9760490  14.5261430
  75.3983770  59.9632080  14.2378870  75.9022790  59.3839360  14.8095100
  74.6591190  60.2472310  14.7755240  82.4521710  61.3703070  13.7714390
  81.6867380  61.9388070  13.6869060  82.6337670  61.0779280  12.8782620
  89.5945060  63.1008400  14.3289410  90.3354530  63.4384160  13.8256870
  88.8317740  63.2700460  13.7759180  77.4306850  58.1061670  15.1328940
  77.4712190  57.8075540  16.0414170  78.2852350  58.5069280  14.9736460
  79.3712660  56.6853770  13.1003430  78.8409120  56.1944720  12.4726770
  80.0400730  57.1137970  12.5661360  88.2690720  61.1523230  12.8644620
  88.6831740  61.3068310  13.7135040  87.3341720  61.2778450  13.0270400
  88.7412890  58.4919390  14.8683770  89.3233660  57.7371710  14.7804250
  88.9174660  59.0226830  14.0915250  79.8584960  53.6516140  13.1800720
  79.7641830  53.0336890  12.4551590  79.2782350  54.3782430  12.9530630
  82.6246400  52.2089380  10.2128110  82.1763700  52.2313640   9.3673660
  81.9911600  51.8108400  10.8098410  83.0305950  61.1043710  10.8340550
  83.4494060  61.9476440  10.6616790  82.1114580  61.2415750  10.6047330
  85.3669850  58.8359890  12.2178390  85.4866060  58.2401030  12.9573230
  86.2263850  58.8729580  11.7979690  87.7057750  59.3897080  10.7940900
  87.1792970  59.9139700  10.1906040  88.0489090  60.0224470  11.4250630
  80.8813370  67.4096720  11.9498280  80.3434460  68.1342780  11.6306980
  81.1347330  66.9327060  11.1595620  82.1338620  55.3781240  13.4754210
  82.7238310  55.0697090  14.1632030  81.3158860  54.9060990  13.6314110
  86.9532050  54.9947050  13.7087230  86.2647570  54.3328590  13.6437220
  87.6738070  54.5485320  14.1535690  83.7375580  68.6447930  12.2084930
  83.6634280  69.5483070  12.5157300  82.8354420  68.3259830  12.1807000
  75.1402870  65.9722520   5.5118550  75.4705880  65.1043580   5.2797190
  75.5693870  66.1781040   6.3423510  79.7364790  64.3031530   3.1720520
  79.4360330  64.1796500   4.0724430  79.6302280  63.4440120   2.7636250
  75.6293080  66.8393110   8.2500180  75.1924070  67.0193910   9.0824330
  76.1970760  67.5967730   8.1081900  75.4617510  59.3513340   4.6089060
  74.8066350  59.0824980   3.9648760  76.2995460  59.2417820   4.1591040
  89.9506900  63.0662090  10.6353650  89.1366740  63.4959250  10.8979440
  90.3581100  63.6780500  10.0222700  76.4993440  59.7365910   9.1492400
  76.8666480  59.6493310  10.0288420  75.9304260  58.9732460   9.0499260
  76.0509440  56.6475000  13.0550820  75.1565490  56.6141760  13.3944530
  76.5906990  56.8461790  13.8202070  89.7385370  53.4306720  14.9402570
  90.6155550  53.4390120  15.3236570  89.7506210  52.6937560  14.3294920
  76.5549150  50.9223330   7.4034040  77.2025340  50.3720710   6.9629200
  76.9750990  51.1766480   8.2249850  90.0082950  67.8180690   4.1621920
  90.6042020  67.4965260   3.4856340  90.2661100  67.3452510   4.9535190
  76.3081150  51.0779000  10.1459360  75.9595970  51.5342820  10.9117540
  75.9768850  50.1836130  10.2281790  77.9145520  64.2498600  14.3112550
  77.8715150  63.8791510  15.1927010  78.0456530  65.1876170  14.4514370
  81.6151550  65.8058190   9.9122270  81.3742910  66.0732750   9.0252790
  82.5554190  65.9763920   9.9673130  83.8205970  52.2690880  13.6678780
  83.7594860  52.8612710  14.4174190  84.7606350  52.1616840  13.5229040
  86.4580530  51.9260940  13.3071070  87.0720940  52.2440230  12.6452150
  87.0030090  51.4409530  13.9266930  76.9801790  50.6055200  13.4210130
  77.5284780  50.4243250  12.6576240  77.0457100  49.8149310  13.9566440
  77.7533550  67.1960850  11.4310330  77.1593870  67.0645550  12.1700370
  77.7457390  66.3598990  10.9652430  87.1988570  50.4893080   9.6340360
  86.3248410  50.8228190   9.4313290  87.0899320  50.0166260  10.4592230
  88.1060550  52.6963950  11.0182080  87.7773910  51.8815710  10.6383810
  89.0542850  52.6533760  10.8947770  90.5595160  68.4675990   7.9919650
  90.0998130  69.2191800   7.6177670  89.9307620  67.7482460   7.9334450
  77.3845780  64.5619230  10.3818370  76.6579840  63.9424520  10.3144320
  77.4454930  64.9559840   9.5116450  80.9890880  66.7764230   7.1667780
  81.5055900  66.1651590   6.6416040  81.6388260  67.2793010   7.6578790
  83.7286380  67.6672720   7.9936760  84.0164190  67.4127020   7.1169770
  84.2409600  67.1150080   8.5842330  84.9463390  51.4062920   8.5733270
  84.1635180  51.8808420   8.8530030  84.6526320  50.5017750   8.4646450
  89.4984460  52.1086020   6.6182360  89.9392550  52.0531120   5.7703960
  89.2292050  53.0244030   6.6892540  75.6675780  67.8793620   3.5915130
  75.4997820  67.2464300   4.2897020  74.8010290  68.0853020   3.2409320
  82.8317610  53.8249670   4.0849300  82.0192120  53.4506560   3.7445180
  83.3359250  53.0694750   4.3870490  87.3342590  50.4892120   5.3232370
  87.9371960  51.0612330   5.7980890  86.5935580  51.0531560   5.1006270
  80.8566790  51.9749590   2.6894350  80.2269530  51.2736900   2.8564480
  80.3171930  52.7353720   2.4727510  83.7958740  68.5888820  15.3604960
  84.7226050  68.3533090  15.4040920  83.7809170  69.4160820  14.8790990
  80.9822350  51.2533570  15.1246840  80.7006620  51.7567170  14.3607660
  81.3642050  50.4555320  14.7588970  87.5837810  50.6687150  15.7027310
  87.4703260  50.9881760  16.5978830  88.4007550  51.0699660  15.4064590
  86.4895960  39.9136130  61.1636010  86.4090010  38.9990740  60.8927720
  86.0760380  40.4103200  60.4575720  84.6214000  41.6915150  63.0445280
  83.8456100  41.2115590  63.3343850  85.2726930  41.0120800  62.8701440
  78.6379830  42.0034960  63.9221040  77.8064710  41.7483670  64.3217550
  79.2460810  42.0745730  64.6578960  88.6421430  46.0975340  61.8244410
  88.1802960  45.3262580  62.1531580  89.4546980  46.1241410  62.3296860
  78.6181090  46.0375050  64.1179060  78.9209130  45.1472790  63.9389280
  79.3624680  46.5945270  63.8901310  77.0471780  36.9636850  57.7063430
  76.1588480  37.3052820  57.6043310  77.3312970  36.7637170  56.8144260
  75.0104790  39.5642500  63.5903130  75.5820900  38.7964700  63.5906770
  75.0106330  39.8631260  62.6809740  84.8684740  48.3833350  61.4448400
  84.2496180  48.8390850  60.8742840  85.7236520  48.5384810  61.0438100
  84.0622990  44.3672340  63.0515440  83.9931270  43.4262280  62.8904570
  84.8242850  44.4573750  63.6238010  76.2529660  34.9726860  65.3772060
  76.0732500  34.0752610  65.6574820  75.8509740  35.5198730  66.0519010
  85.0928160  37.1742720  63.2784370  85.4692980  36.3014600  63.1658040
  84.9947670  37.5101420  62.3874810  79.2233170  35.5468350  58.7401810
  79.3299920  36.4472080  59.0470570  78.3125530  35.4986320  58.4496460
  88.8752280  34.6693160  60.2112710  89.6961900  34.1789730  60.2538190
  88.9086360  35.2590820  60.9644550  76.8716330  37.4687360  63.9854400
  77.5526440  37.7325730  64.6041800  76.5564380  36.6288230  64.3192410
  81.0640900  38.5154720  63.0726990  81.5719120  39.0135690  63.7132010
  81.5954140  37.7389920  62.8966350  79.3477000  33.1553280  67.3390410
  79.3495440  33.6725670  66.5336310  78.5181310  32.6783460  67.3160340
  85.7348090  43.2672590  58.8380310  85.1165360  43.7322040  58.2743030
  86.2471340  43.9600070  59.2549820  80.5979850  42.7948460  65.5163910
  80.2649230  43.4217380  66.1584980  80.7746530  43.3210340  64.7365580
  89.1113760  36.6093540  62.9840250  88.4069330  36.8978430  63.5643360
  89.4725920  37.4193650  62.6239810  79.0292330  34.8663240  65.3460860
  79.3709140  35.7105290  65.0514730  78.0908140  35.0146980  65.4626200
  79.8098950  44.7629260  67.3313090  80.4272950  45.4380340  67.0497540
  78.9492070  45.1717240  67.2400590  75.1031290  43.9529120  56.2119940
  74.7259270  44.4416220  55.4804840  75.3604360  44.6254400  56.8426470
  82.7120220  32.3545510  61.6705450  83.0195200  31.7992400  60.9540950
  81.7820920  32.4889970  61.4878440  88.2635280  48.0712800  63.9612910
  88.2762440  47.6675090  63.0935170  87.7110500  48.8460090  63.8574340
  89.5580700  44.7929020  59.0503080  89.4477030  43.8503350  59.1752500
  89.5548950  45.1544660  59.9365840  87.6620720  42.9742640  65.2895520
  88.0789510  42.7602750  64.4548980  88.3860540  43.2315430  65.8604140
  85.1000980  40.4194340  58.4065570  84.1730260  40.3531720  58.6354040
  85.2525800  41.3574470  58.2920810  85.0870060  36.6911340  55.4032730
  84.1473730  36.8525300  55.4885190  85.4053320  37.4097020  54.8568720
  89.1298270  41.9814640  58.9100820  88.5110690  41.6434190  58.2627120
  89.1122720  41.3374400  59.6180010  88.5724830  38.1599180  66.3266630
  88.1596010  38.9852890  66.5806620  87.8400780  37.5744220  66.1342990
  80.7057620  40.9459080  61.1885300  80.3014620  40.2336330  60.6931200
  80.7920740  40.6012320  62.0773340  81.1739320  44.6326640  63.3524510
  80.8767610  44.0272110  62.6732290  82.1239140  44.6703950  63.2413870
  79.4186240  37.7202290  64.9684340  79.9700830  37.8297630  64.1937590
  79.9329750  38.0939890  65.6839570  89.2624930  48.2058510  67.0147610
  88.7855490  49.0130700  66.8220220  88.5786720  47.5536840  67.1673820
  87.3062970  41.2201450  55.9173570  87.7456250  40.3823880  55.7711390
  88.0191390  41.8530850  56.0037710  85.4158350  46.1597520  59.8854810
  85.8554260  46.9021850  59.4710200  85.3545240  46.4024090  60.8093770
  77.4062250  39.8404060  58.6891950  77.2859850  40.5666150  58.0773220
  77.0963140  39.0706970  58.2119860  75.0447620  43.0119200  64.4960590
  75.1228040  43.1467970  63.5516310  75.6589300  42.3035090  64.6888710
  76.2895250  44.7119390  60.9066770  75.8823330  44.8533980  60.0520370
  77.1808260  44.4279550  60.7037980  88.0828530  49.1466640  57.2417820
  87.9229670  48.8569580  58.1399650  87.9175240  48.3706770  56.7063050
  80.5616910  48.9265170  59.0189440  80.3859390  48.0100710  58.8057240
  79.7072650  49.2852460  59.2587240  87.7854660  46.6554200  55.8015820
  87.0919820  46.6531490  55.1418100  88.5277520  46.2313520  55.3709990
  87.3504590  48.2816910  59.8764310  87.8061540  47.5006290  60.1902930
  87.6897110  48.9923730  60.4205490  75.1007140  44.0533370  67.0355050
  75.2638180  43.5838730  66.2174420  75.5659590  43.5456930  67.7003890
  79.8725910  33.1839130  62.0715620  79.4294060  33.9648670  61.7400140
  80.4310900  33.5069020  62.7786560  82.9884730  32.8049830  56.9521450
  82.3638910  32.8009700  57.6774760  82.9014850  31.9380790  56.5557420
  81.9101810  33.7286460  63.9305220  82.2074140  34.6349290  63.8497240
  82.4587370  33.2405240  63.3164790  79.6640130  38.3072700  59.7996870
  79.4381050  38.0909870  60.7043490  78.8832660  38.7401160  59.4542840
  86.8937890  38.3136070  58.3987520  86.2946780  39.0371870  58.2151140
  87.4417500  38.2512850  57.6163970  85.5002760  36.9499610  60.4290800
  85.8932330  37.2671810  59.6159490  85.8619610  36.0711490  60.5435320
  74.5366930  33.5400410  62.6521000  74.2479980  34.1103270  63.3645980
  75.2812690  33.0604860  63.0152230  74.7237160  37.4820530  53.8623720
  74.6411830  38.4251290  54.0038710  74.3720220  37.3395440  52.9836070
  86.0857900  39.5405360  64.5241580  85.3539020  40.0492170  64.8731680
  85.6882240  38.7235340  64.2230360  82.5235290  36.2159560  62.9294070
  82.5271350  35.7749510  62.0798610  83.4186410  36.5376890  63.0365890
  78.3737670  36.0986050  61.8888280  78.0337720  36.5761280  62.6455330
  77.6114990  35.6451170  61.5289380  82.5855440  37.2171640  55.9200830
  82.7068260  37.1758120  56.8686650  82.2003950  38.0795790  55.7647560
  86.5483810  34.9939040  63.9364520  86.5656550  35.4447690  64.7806370
  86.2999390  34.0944680  64.1497960  81.5976940  39.5272780  55.3184130
  81.0293840  39.0791030  54.6920040  82.3065940  39.8865560  54.7849280
  82.8243260  40.2761340  64.6759480  83.1913390  39.8019910  65.4220820
  82.6348320  41.1502910  65.0167820  75.6883750  35.0205030  60.8052950
  75.4030670  34.6560700  61.6431570  75.6262610  34.2885490  60.1916090
  80.6142630  39.3169980  66.9943690  80.3099700  40.1961960  67.2194050
  81.5689090  39.3769770  67.0301130  79.1424420  43.5230970  57.5910540
  78.3686680  42.9828590  57.4309260  79.8719050  43.0037580  57.2528300
  89.9012400  42.5196330  63.3836930  90.6211520  43.0151620  62.9933040
  89.6994220  41.8414220  62.7390800  85.3622340  33.9134290  57.5266320
  84.5486950  33.4147460  57.4511630  85.1684290  34.7532540  57.1102670
  88.0770730  38.2853940  55.8228480  88.9650350  38.5971170  55.6479820
  88.0475820  37.4126190  55.4309060  79.1861820  43.1911350  61.2289350
  79.7040490  42.3879610  61.1746240  78.7345840  43.1290490  62.0706180
  84.0731320  44.4577630  56.5016650  84.4147020  45.2019860  56.0059970
  83.2444030  44.7708750  56.8641480  86.9558730  43.7793470  61.8662160
  87.3082550  43.1821600  61.2063530  86.0721060  43.4537700  62.0370410
  83.0422010  44.5391160  59.2732570  83.7293140  45.0860370  59.6540160
  82.2554430  45.0831890  59.3082180  75.1814410  40.1563980  54.7649650
  76.0509260  40.4388780  55.0485570  74.6904730  40.9699850  54.6498460
  82.3449220  41.5437190  58.8857930  82.8012000  42.3542440  59.1118120
  81.9937430  41.2260330  59.7176420  84.6481830  47.0543530  66.1150230
  85.2924050  47.2602910  66.7923650  85.0111270  46.2931930  65.6621080
  78.2461000  31.8874840  59.3580450  78.1175630  31.8792740  60.3065370
  77.4223020  32.2257930  59.0071460  85.9213910  45.0575880  64.8327680
  86.5636140  44.3569040  64.9459850  86.4463260  45.8374320  64.6524570
  89.7669630  45.3424500  54.5566820  89.5407210  44.6254940  55.1491460
  89.3765830  45.0936940  53.7188570  75.5485660  49.3691360  55.3311280
  75.9083300  49.9680700  54.6768550  75.4078000  49.9151250  56.1046310
  89.3485880  43.2596440  56.2180980  89.0607580  43.7209130  57.0058860
  90.1438050  42.7994210  56.4865200  81.5654280  46.7522560  56.1484950
  81.5564380  47.4852250  55.5329460  80.6452640  46.5054140  56.2411910
  77.1660920  41.9737450  56.8931710  76.5588870  42.7136350  56.9027010
  77.6410270  42.0636810  56.0669910  86.7393710  36.1388270  66.5688600
  87.1074530  35.3183480  66.8968170  85.8791910  36.1990160  66.9844250
  90.1055740  35.0945210  57.3776160  89.4768900  35.1990880  56.6634390
  89.6107660  35.3141990  58.1670040  84.5513880  46.8150800  54.8110140
  84.6525860  46.6114790  53.8812120  83.6515620  46.5609080  55.0157920
  82.0739770  37.3731160  58.7934040  81.3655920  37.8417500  59.2347650
  82.3584250  36.7153170  59.4279230  83.6995700  38.7927860  66.7926570
  84.1980950  39.2673680  67.4578420  83.8418650  37.8691380  66.9996600
  86.1055200  34.0981820  60.2329830  85.9822980  34.1167950  59.2839340
  87.0539760  34.1460760  60.3528230  83.1931990  49.3337120  59.5057810
  83.4473490  49.2958510  58.5837180  82.2444470  49.2070450  59.4986060
  80.2774790  35.6816240  56.1684750  81.1265320  36.1186390  56.1024940
  79.9106060  35.9936500  56.9956810  89.1984570  40.2529000  61.0816320
  88.2574710  40.2679230  61.2564010  89.5128640  39.4664960  61.5276620
  79.1766210  41.9348600  54.6420280  79.9429480  41.8229960  55.2045710
  79.2540900  41.2386570  53.9897050  77.8712970  39.3673670  55.3253170
  77.9516560  38.4201180  55.4370570  78.7632720  39.6980550  55.4313830
  78.6727680  49.5169060  62.4287710  79.4090160  48.9684520  62.6996280
  79.0568600  50.3825070  62.2893700  75.5573160  45.5842630  58.3029220
  74.6312940  45.8263770  58.2934630  76.0229590  46.4116890  58.1813970
  81.7829990  48.6899370  54.2513280  82.5758600  48.9788200  53.7995070
  81.2634340  48.2591540  53.5725760  82.3007390  43.9102780  54.1155630
  82.1958030  43.2955130  54.8417010  82.1331610  43.3868670  53.3318640
  85.5410120  42.9722810  54.7197620  84.9920220  43.4192110  55.3640360
  86.1629380  42.4672060  55.2435290  81.2085240  41.9313730  56.6162920
  81.6301660  41.7653600  57.4594310  81.3336080  41.1213960  56.1218060
  83.7212880  40.9551340  53.8640020  84.2418540  40.2400360  53.4981170
  84.3681280  41.5937210  54.1640530  82.6246400  33.4345890  66.5358580
  82.1763700  33.4570150  65.6904130  81.9911600  33.0364910  67.1328880
  83.0305950  42.3300220  67.1571020  83.4494060  43.1732950  66.9847260
  82.1114580  42.4672260  66.9277800  87.7057750  40.6153590  67.1171370
  87.1792970  41.1396210  66.5136510  88.0489090  41.2480980  67.7481100
  80.1044140  38.0046960  53.5621080  79.9033200  37.1414320  53.9234420
  79.9336190  37.9180320  52.6242680  87.5832450  32.8155190  56.0907960
  87.8634740  31.9723090  56.4467380  86.8098180  33.0478300  56.6046710
  78.9026940  35.1047580  53.5498960  79.2052840  35.1115010  52.6418110
  79.6421530  34.7545440  54.0466620  82.1211870  34.0482200  54.5355160
  81.7733870  33.3706190  53.9557610  82.3224640  33.5871710  55.3498550
  84.2860910  49.0362950  56.1541760  85.1811700  49.3747920  56.1760520
  84.3178540  48.3142360  55.5266040  77.9257070  44.4090000  54.3828760
  78.3631940  44.9519670  55.0386340  78.4104800  43.5836950  54.3925100
  75.1402870  47.1979030  61.8349020  75.4705880  46.3300090  61.6027660
  75.5693870  47.4037550  62.6653980  79.7364790  45.5288040  59.4950990
  79.4360330  45.4053010  60.3954900  79.6302280  44.6696630  59.0866720
  75.6293080  48.0649620  64.5730650  75.1924070  48.2450420  65.4054800
  76.1970760  48.8224240  64.4312370  75.4617510  40.5769850  60.9319530
  74.8066350  40.3081490  60.2879230  76.2995460  40.4674330  60.4821510
  89.9506900  44.2918600  66.9584120  89.1366740  44.7215760  67.2209910
  90.3581100  44.9037010  66.3453170  88.4107950  35.3711140  55.1538020
  88.8292830  35.1842120  54.3134680  88.1044010  34.5190190  55.4640950
  76.4993440  40.9622420  65.4722870  76.8666480  40.8749820  66.3518890
  75.9304260  40.1988970  65.3729730  74.6755590  37.7868780  56.8744860
  73.7719670  38.0498980  56.6996520  75.1596210  38.0579950  56.0944820
  77.2182800  36.8434320  54.7839240  77.9274500  36.4217540  54.2986520
  76.5022740  36.9109550  54.1522590  76.8656960  32.8973650  53.8241890
  77.5885090  33.4382590  54.1423110  77.1381480  32.6237070  52.9483430
  76.5549150  32.1479840  63.7264510  77.2025340  31.5977220  63.2859670
  76.9750990  32.4022990  64.5480320  90.0082950  49.0437200  60.4852390
  90.6042020  48.7221770  59.8086810  90.2661100  48.5709020  61.2765660
  76.3081150  32.3035510  66.4689830  75.9595970  32.7599330  67.2348010
  75.9768850  31.4092640  66.5512260  81.6151550  47.0314700  66.2352740
  81.3742910  47.2989260  65.3483260  82.5554190  47.2020430  66.2903600
  87.1988570  31.7149590  65.9570830  86.3248410  32.0484700  65.7543760
  87.0899320  31.2422770  66.7822700  88.1060550  33.9220460  67.3412550
  87.7773910  33.1072220  66.9614280  89.0542850  33.8790270  67.2178240
  90.5595160  49.6932500  64.3150120  90.0998130  50.4448310  63.9408140
  89.9307620  48.9738970  64.2564920  77.3845780  45.7875740  66.7048840
  76.6579840  45.1681030  66.6374790  77.4454930  46.1816350  65.8346920
  80.9890880  48.0020740  63.4898250  81.5055900  47.3908100  62.9646510
  81.6388260  48.5049520  63.9809260  83.7286380  48.8929230  64.3167230
  84.0164190  48.6383530  63.4400240  84.2409600  48.3406590  64.9072800
  84.9463390  32.6319430  64.8963740  84.1635180  33.1064930  65.1760500
  84.6526320  31.7274260  64.7876920  89.4984460  33.3342530  62.9412830
  89.9392550  33.2787630  62.0934430  89.2292050  34.2500540  63.0123010
  75.6675780  49.1050130  59.9145600  75.4997820  48.4720810  60.6127490
  74.8010290  49.3109530  59.5639790  76.2903800  32.9366910  57.4177460
  77.0483160  33.0495790  56.8441490  75.8280970  33.7736110  57.3720890
  82.8317610  35.0506180  60.4079770  82.0192120  34.6763070  60.0675650
  83.3359250  34.2951260  60.7100960  87.3342590  31.7148630  61.6462840
  87.9371960  32.2868840  62.1211360  86.5935580  32.2788070  61.4236740
  90.4777190  32.1170190  56.9203120  90.6727820  33.0153640  57.1870550
  89.6907060  31.8857270  57.4136070  77.2738480  47.7983360  57.3595740
  76.7486100  48.1791390  56.6557700  77.1983060  48.4234130  58.0805450
  78.6628950  33.4630960  55.9579430  79.1921710  32.6760760  55.8287380
  79.2957270  34.1422150  56.1914960  80.8566790  33.2006100  59.0124820
  80.2269530  32.4993410  59.1794950  80.3171930  33.9610230  58.7957980
  79.8731450  49.7465740  56.2344990  80.6050270  49.4625020  55.6868880
  80.1325120  49.5079020  57.1244370  79.0346240  45.8630470  56.2391320
  78.4055120  46.3315570  56.7877150  79.1494070  45.0179690  56.6737510
  86.4895960  39.9136130  42.3892520  86.4090010  38.9990740  42.1184230
  86.0760380  40.4103200  41.6832230  84.6214000  41.6915150  44.2701790
  83.8456100  41.2115590  44.5600360  85.2726930  41.0120800  44.0957950
  78.6379830  42.0034960  45.1477550  77.8064710  41.7483670  45.5474060
  79.2460810  42.0745730  45.8835470  88.6421430  46.0975340  43.0500920
  88.1802960  45.3262580  43.3788090  89.4546980  46.1241410  43.5553370
  78.6181090  46.0375050  45.3435570  78.9209130  45.1472790  45.1645790
  79.3624680  46.5945270  45.1157820  77.0471780  36.9636850  38.9319940
  76.1588480  37.3052820  38.8299820  77.3312970  36.7637170  38.0400770
  75.0104790  39.5642500  44.8159640  75.5820900  38.7964700  44.8163280
  75.0106330  39.8631260  43.9066250  84.8684740  48.3833350  42.6704910
  84.2496180  48.8390850  42.0999350  85.7236520  48.5384810  42.2694610
  84.0622990  44.3672340  44.2771950  83.9931270  43.4262280  44.1161080
  84.8242850  44.4573750  44.8494520  76.2529660  34.9726860  46.6028570
  76.0732500  34.0752610  46.8831330  75.8509740  35.5198730  47.2775520
  85.0928160  37.1742720  44.5040880  85.4692980  36.3014600  44.3914550
  84.9947670  37.5101420  43.6131320  79.2233170  35.5468350  39.9658320
  79.3299920  36.4472080  40.2727080  78.3125530  35.4986320  39.6752970
  88.8752280  34.6693160  41.4369220  89.6961900  34.1789730  41.4794700
  88.9086360  35.2590820  42.1901060  76.8716330  37.4687360  45.2110910
  77.5526440  37.7325730  45.8298310  76.5564380  36.6288230  45.5448920
  81.0640900  38.5154720  44.2983500  81.5719120  39.0135690  44.9388520
  81.5954140  37.7389920  44.1222860  79.3477000  33.1553280  48.5646920
  79.3495440  33.6725670  47.7592820  78.5181310  32.6783460  48.5416850
  85.7348090  43.2672590  40.0636820  85.1165360  43.7322040  39.4999540
  86.2471340  43.9600070  40.4806330  80.5979850  42.7948460  46.7420420
  80.2649230  43.4217380  47.3841490  80.7746530  43.3210340  45.9622090
  89.1113760  36.6093540  44.2096760  88.4069330  36.8978430  44.7899870
  89.4725920  37.4193650  43.8496320  79.0292330  34.8663240  46.5717370
  79.3709140  35.7105290  46.2771240  78.0908140  35.0146980  46.6882710
  79.8098950  44.7629260  48.5569600  80.4272950  45.4380340  48.2754050
  78.9492070  45.1717240  48.4657100  75.1031290  43.9529120  37.4376450
  74.7259270  44.4416220  36.7061350  75.3604360  44.6254400  38.0682980
  82.7120220  32.3545510  42.8961960  83.0195200  31.7992400  42.1797460
  81.7820920  32.4889970  42.7134950  88.2635280  48.0712800  45.1869420
  88.2762440  47.6675090  44.3191680  87.7110500  48.8460090  45.0830850
  89.5580700  44.7929020  40.2759590  89.4477030  43.8503350  40.4009010
  89.5548950  45.1544660  41.1622350  87.6620720  42.9742640  46.5152030
  88.0789510  42.7602750  45.6805490  88.3860540  43.2315430  47.0860650
  85.1000980  40.4194340  39.6322080  84.1730260  40.3531720  39.8610550
  85.2525800  41.3574470  39.5177320  85.0870060  36.6911340  36.6289240
  84.1473730  36.8525300  36.7141700  85.4053320  37.4097020  36.0825230
  89.1298270  41.9814640  40.1357330  88.5110690  41.6434190  39.4883630
  89.1122720  41.3374400  40.8436520  88.5724830  38.1599180  47.5523140
  88.1596010  38.9852890  47.8063130  87.8400780  37.5744220  47.3599500
  80.7057620  40.9459080  42.4141810  80.3014620  40.2336330  41.9187710
  80.7920740  40.6012320  43.3029850  81.1739320  44.6326640  44.5781020
  80.8767610  44.0272110  43.8988800  82.1239140  44.6703950  44.4670380
  79.4186240  37.7202290  46.1940850  79.9700830  37.8297630  45.4194100
  79.9329750  38.0939890  46.9096080  89.2624930  48.2058510  48.2404120
  88.7855490  49.0130700  48.0476730  88.5786720  47.5536840  48.3930330
  80.2657750  44.3708330  51.2288820  79.3686280  44.5948300  51.4762220
  80.2910620  44.4943270  50.2800220  87.3062970  41.2201450  37.1430080
  87.7456250  40.3823880  36.9967900  88.0191390  41.8530850  37.2294220
  79.0928970  41.2421650  49.8046190  78.9536740  42.1144450  50.1733590
  78.2110330  40.8994460  49.6594130  85.4158350  46.1597520  41.1111320
  85.8554260  46.9021850  40.6966710  85.3545240  46.4024090  42.0350280
  80.8909320  47.1843350  52.0131340  80.8624750  47.5886300  51.1459770
  80.7274290  46.2553710  51.8502940  77.4062250  39.8404060  39.9148460
  77.2859850  40.5666150  39.3029730  77.0963140  39.0706970  39.4376370
  75.0447620  43.0119200  45.7217100  75.1228040  43.1467970  44.7772820
  75.6589300  42.3035090  45.9145220  76.2895250  44.7119390  42.1323280
  75.8823330  44.8533980  41.2776880  77.1808260  44.4279550  41.9294490
  86.1074130  48.8611300  49.0390330  86.6218800  48.7719310  49.8412760
  85.2643210  49.2071000  49.3318240  88.0828530  49.1466640  38.4674330
  87.9229670  48.8569580  39.3656160  87.9175240  48.3706770  37.9319560
  80.5616910  48.9265170  40.2445950  80.3859390  48.0100710  40.0313750
  79.7072650  49.2852460  40.4843750  87.7854660  46.6554200  37.0272330
  87.0919820  46.6531490  36.3674610  88.5277520  46.2313520  36.5966500
  87.3504590  48.2816910  41.1020820  87.8061540  47.5006290  41.4159440
  87.6897110  48.9923730  41.6462000  75.1007140  44.0533370  48.2611560
  75.2638180  43.5838730  47.4430930  75.5659590  43.5456930  48.9260400
  79.8725910  33.1839130  43.2972130  79.4294060  33.9648670  42.9656650
  80.4310900  33.5069020  44.0043070  84.1595720  36.0507650  48.9007450
  83.6975090  36.2590670  49.7127390  83.7573830  35.2367000  48.5978120
  89.1600230  37.2716600  50.0304110  88.3093820  36.9722350  50.3513180
  89.0002020  37.5158610  49.1187930  86.2549940  38.7718350  52.1302900
  86.5803350  37.9382100  51.7905130  87.0430270  39.2946870  52.2781230
  82.9884730  32.8049830  38.1777960  82.3638910  32.8009700  38.9031270
  82.9014850  31.9380790  37.7813930  81.9101810  33.7286460  45.1561730
  82.2074140  34.6349290  45.0753750  82.4587370  33.2405240  44.5421300
  79.6640130  38.3072700  41.0253380  79.4381050  38.0909870  41.9300000
  78.8832660  38.7401160  40.6799350  86.8937890  38.3136070  39.6244030
  86.2946780  39.0371870  39.4407650  87.4417500  38.2512850  38.8420480
  82.1039340  39.2058280  51.6913650  82.0082940  38.2653010  51.5414050
  82.9471320  39.4273350  51.2961720  85.5002760  36.9499610  41.6547310
  85.8932330  37.2671810  40.8416000  85.8619610  36.0711490  41.7691830
  77.2349880  35.6171950  49.8447430  76.8413270  36.4647160  50.0520210
  76.5468280  34.9798320  50.0356070  83.8094930  35.7006920  52.9144170
  83.1193250  35.5079120  53.5490260  84.5527230  35.9841560  53.4468470
  74.5366930  33.5400410  43.8777510  74.2479980  34.1103270  44.5902490
  75.2812690  33.0604860  44.2408740  74.7237160  37.4820530  35.0880230
  74.6411830  38.4251290  35.2295220  74.3720220  37.3395440  34.2092580
  86.0857900  39.5405360  45.7498090  85.3539020  40.0492170  46.0988190
  85.6882240  38.7235340  45.4486870  82.5235290  36.2159560  44.1550580
  82.5271350  35.7749510  43.3055120  83.4186410  36.5376890  44.2622400
  78.3737670  36.0986050  43.1144790  78.0337720  36.5761280  43.8711840
  77.6114990  35.6451170  42.7545890  82.5855440  37.2171640  37.1457340
  82.7068260  37.1758120  38.0943160  82.2003950  38.0795790  36.9904070
  86.5483810  34.9939040  45.1621030  86.5656550  35.4447690  46.0062880
  86.2999390  34.0944680  45.3754470  81.5976940  39.5272780  36.5440640
  81.0293840  39.0791030  35.9176550  82.3065940  39.8865560  36.0105790
  89.9754560  32.4071220  51.0007410  90.3000330  31.6760880  51.5265390
  90.0111070  32.0884860  50.0988400  76.6746120  43.4284800  50.4207370
  76.2900910  42.7878470  51.0190330  76.9858310  44.1320920  50.9902100
  82.8243260  40.2761340  45.9015990  83.1913390  39.8019910  46.6477330
  82.6348320  41.1502910  46.2424330  75.6883750  35.0205030  42.0309460
  75.4030670  34.6560700  42.8688080  75.6262610  34.2885490  41.4172600
  80.6142630  39.3169980  48.2200200  80.3099700  40.1961960  48.4450560
  81.5689090  39.3769770  48.2557640  79.1424420  43.5230970  38.8167050
  78.3686680  42.9828590  38.6565770  79.8719050  43.0037580  38.4784810
  89.9012400  42.5196330  44.6093440  90.6211520  43.0151620  44.2189550
  89.6994220  41.8414220  43.9647310  85.3622340  33.9134290  38.7522830
  84.5486950  33.4147460  38.6768140  85.1684290  34.7532540  38.3359180
  85.2831200  42.5905390  50.4962440  85.2168510  41.6701060  50.2420030
  84.6536340  42.6880830  51.2107080  88.0770730  38.2853940  37.0484990
  88.9650350  38.5971170  36.8736330  88.0475820  37.4126190  36.6565570
  79.1861820  43.1911350  42.4545860  79.7040490  42.3879610  42.4002750
  78.7345840  43.1290490  43.2962690  84.0731320  44.4577630  37.7273160
  84.4147020  45.2019860  37.2316480  83.2444030  44.7708750  38.0897990
  76.6706360  40.1572720  49.3671560  76.3121300  40.8226570  49.9544900
  76.3760920  39.3256270  49.7384180  79.8719480  40.6156960  52.2511110
  79.5719620  40.7614140  51.3538930  80.6430720  40.0562250  52.1584500
  85.2147930  45.4125960  50.2466240  85.2292470  44.4806920  50.0285150
  84.5073030  45.4985720  50.8856010  86.9558730  43.7793470  43.0918670
  87.3082550  43.1821600  42.4320040  86.0721060  43.4537700  43.2626920
  83.0422010  44.5391160  40.4989080  83.7293140  45.0860370  40.8796670
  82.2554430  45.0831890  40.5338690  75.1814410  40.1563980  35.9906160
  76.0509260  40.4388780  36.2742080  74.6904730  40.9699850  35.8754970
  82.3449220  41.5437190  40.1114440  82.8012000  42.3542440  40.3374630
  81.9937430  41.2260330  40.9432930  84.6481830  47.0543530  47.3406740
  85.2924050  47.2602910  48.0180160  85.0111270  46.2931930  46.8877590
  78.2461000  31.8874840  40.5836960  78.1175630  31.8792740  41.5321880
  77.4223020  32.2257930  40.2327970  85.9213910  45.0575880  46.0584190
  86.5636140  44.3569040  46.1716360  86.4463260  45.8374320  45.8781080
  89.7669630  45.3424500  35.7823330  89.5407210  44.6254940  36.3747970
  89.3765830  45.0936940  34.9445080  87.6951530  45.8570780  49.2620250
  88.0307770  46.4437470  49.9398170  86.7751870  45.7263490  49.4918040
  75.5485660  49.3691360  36.5567790  75.9083300  49.9680700  35.9025060
  75.4078000  49.9151250  37.3302820  75.2454930  33.6465960  50.0443660
  74.5313450  33.8462880  50.6496270  75.6649970  32.8705530  50.4158460
  89.3485880  43.2596440  37.4437490  89.0607580  43.7209130  38.2315370
  90.1438050  42.7994210  37.7121710  75.5327520  47.6346220  51.0310190
  75.6418640  46.6940960  50.8905580  74.8808080  47.9000970  50.3823920
  83.5240110  45.9062110  52.4308310  83.2036980  45.1871350  52.9754000
  82.8498470  46.5817180  52.5044370  81.5654280  46.7522560  37.3741460
  81.5564380  47.4852250  36.7585970  80.6452640  46.5054140  37.4668420
  77.1660920  41.9737450  38.1188220  76.5588870  42.7136350  38.1283520
  77.6410270  42.0636810  37.2926420  86.7393710  36.1388270  47.7945110
  87.1074530  35.3183480  48.1224680  85.8791910  36.1990160  48.2100760
  90.1055740  35.0945210  38.6032670  89.4768900  35.1990880  37.8890900
  89.6107660  35.3141990  39.3926550  84.5513880  46.8150800  36.0366650
  84.6525860  46.6114790  35.1068630  83.6515620  46.5609080  36.2414430
  82.0739770  37.3731160  40.0190550  81.3655920  37.8417500  40.4604160
  82.3584250  36.7153170  40.6535740  83.6995700  38.7927860  48.0183080
  84.1980950  39.2673680  48.6834930  83.8418650  37.8691380  48.2253110
  86.1055200  34.0981820  41.4586340  85.9822980  34.1167950  40.5095850
  87.0539760  34.1460760  41.5784740  83.1931990  49.3337120  40.7314320
  83.4473490  49.2958510  39.8093690  82.2444470  49.2070450  40.7242570
  80.2774790  35.6816240  37.3941260  81.1265320  36.1186390  37.3281450
  79.9106060  35.9936500  38.2213320  89.1984570  40.2529000  42.3072830
  88.2574710  40.2679230  42.4820520  89.5128640  39.4664960  42.7533130
  79.1766210  41.9348600  35.8676790  79.9429480  41.8229960  36.4302220
  79.2540900  41.2386570  35.2153560  77.8712970  39.3673670  36.5509680
  77.9516560  38.4201180  36.6627080  78.7632720  39.6980550  36.6570340
  78.6727680  49.5169060  43.6544220  79.4090160  48.9684520  43.9252790
  79.0568600  50.3825070  43.5150210  75.5573160  45.5842630  39.5285730
  74.6312940  45.8263770  39.5191140  76.0229590  46.4116890  39.4070480
  77.6785960  48.7015130  52.8429800  78.4798690  49.0227180  53.2565200
  77.1637780  48.3410710  53.5649710  81.7829990  48.6899370  35.4769790
  82.5758600  48.9788200  35.0251580  81.2634340  48.2591540  34.7982270
  86.5150590  44.8095000  52.7905210  85.9088750  44.8326600  52.0500960
  86.2104700  44.0778040  53.3272460  87.9450960  48.5375290  51.4014620
  88.8972710  48.4533310  51.3514860  87.7979180  49.2017000  52.0748410
  75.3983770  41.1888590  51.7865850  75.9022790  40.6095870  52.3582080
  74.6591190  41.4728820  52.3242220  82.3007390  43.9102780  35.3412140
  82.1958030  43.2955130  36.0673520  82.1331610  43.3868670  34.5575150
  82.4521710  42.5959580  51.3201370  81.6867380  43.1644580  51.2356040
  82.6337670  42.3035790  50.4269600  85.5410120  42.9722810  35.9454130
  84.9920220  43.4192110  36.5896870  86.1629380  42.4672060  36.4691800
  89.5945060  44.3264910  51.8776390  90.3354530  44.6640670  51.3743850
  88.8317740  44.4956970  51.3246160  77.4306850  39.3318180  52.6815920
  77.4712190  39.0332050  53.5901150  78.2852350  39.7325790  52.5223440
  81.2085240  41.9313730  37.8419430  81.6301660  41.7653600  38.6850820
  81.3336080  41.1213960  37.3474570  79.3712660  37.9110280  50.6490410
  78.8409120  37.4201230  50.0213750  80.0400730  38.3394480  50.1148340
  83.7212880  40.9551340  35.0896530  84.2418540  40.2400360  34.7237680
  84.3681280  41.5937210  35.3897040  88.2690720  42.3779740  50.4131600
  88.6831740  42.5324820  51.2622020  87.3341720  42.5034960  50.5757380
  88.7412890  39.7175900  52.4170750  89.3233660  38.9628220  52.3291230
  88.9174660  40.2483340  51.6402230  79.8584960  34.8772650  50.7287700
  79.7641830  34.2593400  50.0038570  79.2782350  35.6038940  50.5017610
  82.6246400  33.4345890  47.7615090  82.1763700  33.4570150  46.9160640
  81.9911600  33.0364910  48.3585390  83.0305950  42.3300220  48.3827530
  83.4494060  43.1732950  48.2103770  82.1114580  42.4672260  48.1534310
  85.3669850  40.0616400  49.7665370  85.4866060  39.4657540  50.5060210
  86.2263850  40.0986090  49.3466670  87.7057750  40.6153590  48.3427880
  87.1792970  41.1396210  47.7393020  88.0489090  41.2480980  48.9737610
  80.1044140  38.0046960  34.7877590  79.9033200  37.1414320  35.1490930
  79.9336190  37.9180320  33.8499190  80.8813370  48.6353230  49.4985260
  80.3434460  49.3599290  49.1793960  81.1347330  48.1583570  48.7082600
  82.1338620  36.6037750  51.0241190  82.7238310  36.2953600  51.7119010
  81.3158860  36.1317500  51.1801090  86.9532050  36.2203560  51.2574210
  86.2647570  35.5585100  51.1924200  87.6738070  35.7741830  51.7022670
  87.5832450  32.8155190  37.3164470  87.8634740  31.9723090  37.6723890
  86.8098180  33.0478300  37.8303220  78.9026940  35.1047580  34.7755470
  79.2052840  35.1115010  33.8674620  79.6421530  34.7545440  35.2723130
  83.7375580  49.8704440  49.7571910  83.6634280  50.7739580  50.0644280
  82.8354420  49.5516340  49.7293980  82.1211870  34.0482200  35.7611670
  81.7733870  33.3706190  35.1814120  82.3224640  33.5871710  36.5755060
  84.2860910  49.0362950  37.3798270  85.1811700  49.3747920  37.4017030
  84.3178540  48.3142360  36.7522550  77.9257070  44.4090000  35.6085270
  78.3631940  44.9519670  36.2642850  78.4104800  43.5836950  35.6181610
  75.1402870  47.1979030  43.0605530  75.4705880  46.3300090  42.8284170
  75.5693870  47.4037550  43.8910490  79.7364790  45.5288040  40.7207500
  79.4360330  45.4053010  41.6211410  79.6302280  44.6696630  40.3123230
  75.6293080  48.0649620  45.7987160  75.1924070  48.2450420  46.6311310
  76.1970760  48.8224240  45.6568880  75.4617510  40.5769850  42.1576040
  74.8066350  40.3081490  41.5135740  76.2995460  40.4674330  41.7078020
  89.9506900  44.2918600  48.1840630  89.1366740  44.7215760  48.4466420
  90.3581100  44.9037010  47.5709680  88.4107950  35.3711140  36.3794530
  88.8292830  35.1842120  35.5391190  88.1044010  34.5190190  36.6897460
  76.4993440  40.9622420  46.6979380  76.8666480  40.8749820  47.5775400
  75.9304260  40.1988970  46.5986240  76.0509440  37.8731510  50.6037800
  75.1565490  37.8398270  50.9431510  76.5906990  38.0718300  51.3689050
  89.7385370  34.6563230  52.4889550  90.6155550  34.6646630  52.8723550
  89.7506210  33.9194070  51.8781900  74.6755590  37.7868780  38.1001370
  73.7719670  38.0498980  37.9253030  75.1596210  38.0579950  37.3201330
  77.2182800  36.8434320  36.0095750  77.9274500  36.4217540  35.5243030
  76.5022740  36.9109550  35.3779100  76.8656960  32.8973650  35.0498400
  77.5885090  33.4382590  35.3679620  77.1381480  32.6237070  34.1739940
  76.5549150  32.1479840  44.9521020  77.2025340  31.5977220  44.5116180
  76.9750990  32.4022990  45.7736830  90.0082950  49.0437200  41.7108900
  90.6042020  48.7221770  41.0343320  90.2661100  48.5709020  42.5022170
  76.3081150  32.3035510  47.6946340  75.9595970  32.7599330  48.4604520
  75.9768850  31.4092640  47.7768770  77.9145520  45.4755110  51.8599530
  77.8715150  45.1048020  52.7413990  78.0456530  46.4132680  52.0001350
  81.6151550  47.0314700  47.4609250  81.3742910  47.2989260  46.5739770
  82.5554190  47.2020430  47.5160110  83.8205970  33.4947390  51.2165760
  83.7594860  34.0869220  51.9661170  84.7606350  33.3873350  51.0716020
  86.4580530  33.1517450  50.8558050  87.0720940  33.4696740  50.1939130
  87.0030090  32.6666040  51.4753910  76.9801790  31.8311710  50.9697110
  77.5284780  31.6499760  50.2063220  77.0457100  31.0405820  51.5053420
  77.7533550  48.4217360  48.9797310  77.1593870  48.2902060  49.7187350
  77.7457390  47.5855500  48.5139410  87.1988570  31.7149590  47.1827340
  86.3248410  32.0484700  46.9800270  87.0899320  31.2422770  48.0079210
  88.1060550  33.9220460  48.5669060  87.7773910  33.1072220  48.1870790
  89.0542850  33.8790270  48.4434750  90.5595160  49.6932500  45.5406630
  90.0998130  50.4448310  45.1664650  89.9307620  48.9738970  45.4821430
  77.3845780  45.7875740  47.9305350  76.6579840  45.1681030  47.8631300
  77.4454930  46.1816350  47.0603430  80.9890880  48.0020740  44.7154760
  81.5055900  47.3908100  44.1903020  81.6388260  48.5049520  45.2065770
  83.7286380  48.8929230  45.5423740  84.0164190  48.6383530  44.6656750
  84.2409600  48.3406590  46.1329310  84.9463390  32.6319430  46.1220250
  84.1635180  33.1064930  46.4017010  84.6526320  31.7274260  46.0133430
  89.4984460  33.3342530  44.1669340  89.9392550  33.2787630  43.3190940
  89.2292050  34.2500540  44.2379520  75.6675780  49.1050130  41.1402110
  75.4997820  48.4720810  41.8384000  74.8010290  49.3109530  40.7896300
  76.2903800  32.9366910  38.6433970  77.0483160  33.0495790  38.0698000
  75.8280970  33.7736110  38.5977400  82.8317610  35.0506180  41.6336280
  82.0192120  34.6763070  41.2932160  83.3359250  34.2951260  41.9357470
  87.3342590  31.7148630  42.8719350  87.9371960  32.2868840  43.3467870
  86.5935580  32.2788070  42.6493250  90.4777190  32.1170190  38.1459630
  90.6727820  33.0153640  38.4127060  89.6907060  31.8857270  38.6392580
  77.2738480  47.7983360  38.5852250  76.7486100  48.1791390  37.8814210
  77.1983060  48.4234130  39.3061960  78.6628950  33.4630960  37.1835940
  79.1921710  32.6760760  37.0543890  79.2957270  34.1422150  37.4171470
  80.8566790  33.2006100  40.2381330  80.2269530  32.4993410  40.4051460
  80.3171930  33.9610230  40.0214490  83.7958740  49.8145330  52.9091940
  84.7226050  49.5789600  52.9527900  83.7809170  50.6417330  52.4277970
  80.9822350  32.4790080  52.6733820  80.7006620  32.9823680  51.9094640
  81.3642050  31.6811830  52.3075950  79.8731450  49.7465740  37.4601500
  80.6050270  49.4625020  36.9125390  80.1325120  49.5079020  38.3500880
  79.0346240  45.8630470  37.4647830  78.4055120  46.3315570  38.0133660
  79.1494070  45.0179690  37.8994020  87.5837810  31.8943660  53.2514290
  87.4703260  32.2138270  54.1465810  88.4007550  32.2956170  52.9551570
  86.4895960  39.9136130  23.6149030  86.4090010  38.9990740  23.3440740
  86.0760380  40.4103200  22.9088740  84.6214000  41.6915150  25.4958300
  83.8456100  41.2115590  25.7856870  85.2726930  41.0120800  25.3214460
  78.6379830  42.0034960  26.3734060  77.8064710  41.7483670  26.7730570
  79.2460810  42.0745730  27.1091980  88.6421430  46.0975340  24.2757430
  88.1802960  45.3262580  24.6044600  89.4546980  46.1241410  24.7809880
  78.6181090  46.0375050  26.5692080  78.9209130  45.1472790  26.3902300
  79.3624680  46.5945270  26.3414330  77.0471780  36.9636850  20.1576450
  76.1588480  37.3052820  20.0556330  77.3312970  36.7637170  19.2657280
  75.0104790  39.5642500  26.0416150  75.5820900  38.7964700  26.0419790
  75.0106330  39.8631260  25.1322760  84.8684740  48.3833350  23.8961420
  84.2496180  48.8390850  23.3255860  85.7236520  48.5384810  23.4951120
  84.0622990  44.3672340  25.5028460  83.9931270  43.4262280  25.3417590
  84.8242850  44.4573750  26.0751030  76.2529660  34.9726860  27.8285080
  76.0732500  34.0752610  28.1087840  75.8509740  35.5198730  28.5032030
  85.0928160  37.1742720  25.7297390  85.4692980  36.3014600  25.6171060
  84.9947670  37.5101420  24.8387830  79.2233170  35.5468350  21.1914830
  79.3299920  36.4472080  21.4983590  78.3125530  35.4986320  20.9009480
  88.8752280  34.6693160  22.6625730  89.6961900  34.1789730  22.7051210
  88.9086360  35.2590820  23.4157570  76.8716330  37.4687360  26.4367420
  77.5526440  37.7325730  27.0554820  76.5564380  36.6288230  26.7705430
  81.0640900  38.5154720  25.5240010  81.5719120  39.0135690  26.1645030
  81.5954140  37.7389920  25.3479370  79.3477000  33.1553280  29.7903430
  79.3495440  33.6725670  28.9849330  78.5181310  32.6783460  29.7673360
  85.7348090  43.2672590  21.2893330  85.1165360  43.7322040  20.7256050
  86.2471340  43.9600070  21.7062840  80.5979850  42.7948460  27.9676930
  80.2649230  43.4217380  28.6098000  80.7746530  43.3210340  27.1878600
  89.1113760  36.6093540  25.4353270  88.4069330  36.8978430  26.0156380
  89.4725920  37.4193650  25.0752830  79.0292330  34.8663240  27.7973880
  79.3709140  35.7105290  27.5027750  78.0908140  35.0146980  27.9139220
  79.8098950  44.7629260  29.7826110  80.4272950  45.4380340  29.5010560
  78.9492070  45.1717240  29.6913610  75.1031290  43.9529120  18.6632960
  74.7259270  44.4416220  17.9317860  75.3604360  44.6254400  19.2939490
  82.7120220  32.3545510  24.1218470  83.0195200  31.7992400  23.4053970
  81.7820920  32.4889970  23.9391460  88.2635280  48.0712800  26.4125930
  88.2762440  47.6675090  25.5448190  87.7110500  48.8460090  26.3087360
  89.5580700  44.7929020  21.5016100  89.4477030  43.8503350  21.6265520
  89.5548950  45.1544660  22.3878860  87.6620720  42.9742640  27.7408540
  88.0789510  42.7602750  26.9062000  88.3860540  43.2315430  28.3117160
  85.1000980  40.4194340  20.8578590  84.1730260  40.3531720  21.0867060
  85.2525800  41.3574470  20.7433830  85.0870060  36.6911340  17.8545750
  84.1473730  36.8525300  17.9398210  85.4053320  37.4097020  17.3081740
  89.1298270  41.9814640  21.3613840  88.5110690  41.6434190  20.7140140
  89.1122720  41.3374400  22.0693030  88.5724830  38.1599180  28.7779650
  88.1596010  38.9852890  29.0319640  87.8400780  37.5744220  28.5856010
  80.7057620  40.9459080  23.6398320  80.3014620  40.2336330  23.1444220
  80.7920740  40.6012320  24.5286360  81.1739320  44.6326640  25.8037530
  80.8767610  44.0272110  25.1245310  82.1239140  44.6703950  25.6926890
  79.4186240  37.7202290  27.4197360  79.9700830  37.8297630  26.6450610
  79.9329750  38.0939890  28.1352590  89.2624930  48.2058510  29.4660630
  88.7855490  49.0130700  29.2733240  88.5786720  47.5536840  29.6186840
  80.2657750  44.3708330  32.4545330  79.3686280  44.5948300  32.7018730
  80.2910620  44.4943270  31.5056730  87.3062970  41.2201450  18.3686590
  87.7456250  40.3823880  18.2224410  88.0191390  41.8530850  18.4550730
  79.0928970  41.2421650  31.0302700  78.9536740  42.1144450  31.3990100
  78.2110330  40.8994460  30.8850640  85.4158350  46.1597520  22.3367830
  85.8554260  46.9021850  21.9223220  85.3545240  46.4024090  23.2606790
  80.8909320  47.1843350  33.2387850  80.8624750  47.5886300  32.3716280
  80.7274290  46.2553710  33.0759450  77.4062250  39.8404060  21.1404970
  77.2859850  40.5666150  20.5286240  77.0963140  39.0706970  20.6632880
  75.0447620  43.0119200  26.9473610  75.1228040  43.1467970  26.0029330
  75.6589300  42.3035090  27.1401730  76.2895250  44.7119390  23.3579790
  75.8823330  44.8533980  22.5033390  77.1808260  44.4279550  23.1551000
  86.1074130  48.8611300  30.2646840  86.6218800  48.7719310  31.0669270
  85.2643210  49.2071000  30.5574750  88.0828530  49.1466640  19.6930840
  87.9229670  48.8569580  20.5912670  87.9175240  48.3706770  19.1576070
  80.5616910  48.9265170  21.4702460  80.3859390  48.0100710  21.2570260
  79.7072650  49.2852460  21.7100260  87.7854660  46.6554200  18.2528840
  87.0919820  46.6531490  17.5931120  88.5277520  46.2313520  17.8223010
  87.3504590  48.2816910  22.3277330  87.8061540  47.5006290  22.6415950
  87.6897110  48.9923730  22.8718510  75.1007140  44.0533370  29.4868070
  75.2638180  43.5838730  28.6687440  75.5659590  43.5456930  30.1516910
  79.8725910  33.1839130  24.5228640  79.4294060  33.9648670  24.1913160
  80.4310900  33.5069020  25.2299580  84.1595720  36.0507650  30.1263960
  83.6975090  36.2590670  30.9383900  83.7573830  35.2367000  29.8234630
  89.1600230  37.2716600  31.2560620  88.3093820  36.9722350  31.5769690
  89.0002020  37.5158610  30.3444440  86.2549940  38.7718350  33.3559410
  86.5803350  37.9382100  33.0161640  87.0430270  39.2946870  33.5037740
  82.9884730  32.8049830  19.4034470  82.3638910  32.8009700  20.1287780
  82.9014850  31.9380790  19.0070440  81.9101810  33.7286460  26.3818240
  82.2074140  34.6349290  26.3010260  82.4587370  33.2405240  25.7677810
  79.6640130  38.3072700  22.2509890  79.4381050  38.0909870  23.1556510
  78.8832660  38.7401160  21.9055860  86.8937890  38.3136070  20.8500540
  86.2946780  39.0371870  20.6664160  87.4417500  38.2512850  20.0676990
  82.1039340  39.2058280  32.9170160  82.0082940  38.2653010  32.7670560
  82.9471320  39.4273350  32.5218230  85.5002760  36.9499610  22.8803820
  85.8932330  37.2671810  22.0672510  85.8619610  36.0711490  22.9948340
  77.2349880  35.6171950  31.0703940  76.8413270  36.4647160  31.2776720
  76.5468280  34.9798320  31.2612580  83.8094930  35.7006920  34.1400680
  83.1193250  35.5079120  34.7746770  84.5527230  35.9841560  34.6724980
  74.5366930  33.5400410  25.1034020  74.2479980  34.1103270  25.8159000
  75.2812690  33.0604860  25.4665250  74.7237160  37.4820530  16.3136740
  74.6411830  38.4251290  16.4551730  74.3720220  37.3395440  15.4349090
  86.0857900  39.5405360  26.9754600  85.3539020  40.0492170  27.3244700
  85.6882240  38.7235340  26.6743380  82.5235290  36.2159560  25.3807090
  82.5271350  35.7749510  24.5311630  83.4186410  36.5376890  25.4878910
  78.3737670  36.0986050  24.3401300  78.0337720  36.5761280  25.0968350
  77.6114990  35.6451170  23.9802400  82.5855440  37.2171640  18.3713850
  82.7068260  37.1758120  19.3199670  82.2003950  38.0795790  18.2160580
  86.5483810  34.9939040  26.3877540  86.5656550  35.4447690  27.2319390
  86.2999390  34.0944680  26.6010980  81.5976940  39.5272780  17.7697150
  81.0293840  39.0791030  17.1433060  82.3065940  39.8865560  17.2362300
  89.9754560  32.4071220  32.2263920  90.3000330  31.6760880  32.7521900
  90.0111070  32.0884860  31.3244910  76.6746120  43.4284800  31.6463880
  76.2900910  42.7878470  32.2446840  76.9858310  44.1320920  32.2158610
  82.8243260  40.2761340  27.1272500  83.1913390  39.8019910  27.8733840
  82.6348320  41.1502910  27.4680840  75.6883750  35.0205030  23.2565970
  75.4030670  34.6560700  24.0944590  75.6262610  34.2885490  22.6429110
  80.6142630  39.3169980  29.4456710  80.3099700  40.1961960  29.6707070
  81.5689090  39.3769770  29.4814150  79.1424420  43.5230970  20.0423560
  78.3686680  42.9828590  19.8822280  79.8719050  43.0037580  19.7041320
  89.9012400  42.5196330  25.8349950  90.6211520  43.0151620  25.4446060
  89.6994220  41.8414220  25.1903820  85.3622340  33.9134290  19.9779340
  84.5486950  33.4147460  19.9024650  85.1684290  34.7532540  19.5615690
  85.2831200  42.5905390  31.7218950  85.2168510  41.6701060  31.4676540
  84.6536340  42.6880830  32.4363590  88.0770730  38.2853940  18.2741500
  88.9650350  38.5971170  18.0992840  88.0475820  37.4126190  17.8822080
  79.1861820  43.1911350  23.6802370  79.7040490  42.3879610  23.6259260
  78.7345840  43.1290490  24.5219200  84.0731320  44.4577630  18.9529670
  84.4147020  45.2019860  18.4572990  83.2444030  44.7708750  19.3154500
  76.6706360  40.1572720  30.5928070  76.3121300  40.8226570  31.1801410
  76.3760920  39.3256270  30.9640690  79.8719480  40.6156960  33.4767620
  79.5719620  40.7614140  32.5795440  80.6430720  40.0562250  33.3841010
  85.2147930  45.4125960  31.4722750  85.2292470  44.4806920  31.2541660
  84.5073030  45.4985720  32.1112520  86.9558730  43.7793470  24.3175180
  87.3082550  43.1821600  23.6576550  86.0721060  43.4537700  24.4883430
  83.0422010  44.5391160  21.7245590  83.7293140  45.0860370  22.1053180
  82.2554430  45.0831890  21.7595200  75.1814410  40.1563980  17.2162670
  76.0509260  40.4388780  17.4998590  74.6904730  40.9699850  17.1011480
  82.3449220  41.5437190  21.3370950  82.8012000  42.3542440  21.5631140
  81.9937430  41.2260330  22.1689440  84.6481830  47.0543530  28.5663250
  85.2924050  47.2602910  29.2436670  85.0111270  46.2931930  28.1134100
  78.2461000  31.8874840  21.8093470  78.1175630  31.8792740  22.7578390
  77.4223020  32.2257930  21.4584480  85.9213910  45.0575880  27.2840700
  86.5636140  44.3569040  27.3972870  86.4463260  45.8374320  27.1037590
  89.7669630  45.3424500  17.0079840  89.5407210  44.6254940  17.6004480
  89.3765830  45.0936940  16.1701590  87.6951530  45.8570780  30.4876760
  88.0307770  46.4437470  31.1654680  86.7751870  45.7263490  30.7174550
  75.5485660  49.3691360  17.7824300  75.9083300  49.9680700  17.1281570
  75.4078000  49.9151250  18.5559330  75.2454930  33.6465960  31.2700170
  74.5313450  33.8462880  31.8752780  75.6649970  32.8705530  31.6414970
  89.3485880  43.2596440  18.6694000  89.0607580  43.7209130  19.4571880
  90.1438050  42.7994210  18.9378220  75.5327520  47.6346220  32.2566700
  75.6418640  46.6940960  32.1162090  74.8808080  47.9000970  31.6080430
  83.5240110  45.9062110  33.6564820  83.2036980  45.1871350  34.2010510
  82.8498470  46.5817180  33.7300880  81.5654280  46.7522560  18.5997970
  81.5564380  47.4852250  17.9842480  80.6452640  46.5054140  18.6924930
  77.1660920  41.9737450  19.3444730  76.5588870  42.7136350  19.3540030
  77.6410270  42.0636810  18.5182930  86.7393710  36.1388270  29.0201620
  87.1074530  35.3183480  29.3481190  85.8791910  36.1990160  29.4357270
  90.1055740  35.0945210  19.8289180  89.4768900  35.1990880  19.1147410
  89.6107660  35.3141990  20.6183060  84.5513880  46.8150800  17.2623160
  84.6525860  46.6114790  16.3325140  83.6515620  46.5609080  17.4670940
  82.0739770  37.3731160  21.2447060  81.3655920  37.8417500  21.6860670
  82.3584250  36.7153170  21.8792250  83.6995700  38.7927860  29.2439590
  84.1980950  39.2673680  29.9091440  83.8418650  37.8691380  29.4509620
  86.1055200  34.0981820  22.6842850  85.9822980  34.1167950  21.7352360
  87.0539760  34.1460760  22.8041250  83.1931990  49.3337120  21.9570830
  83.4473490  49.2958510  21.0350200  82.2444470  49.2070450  21.9499080
  80.2774790  35.6816240  18.6197770  81.1265320  36.1186390  18.5537960
  79.9106060  35.9936500  19.4469830  89.1984570  40.2529000  23.5329340
  88.2574710  40.2679230  23.7077030  89.5128640  39.4664960  23.9789640
  79.1766210  41.9348600  17.0933300  79.9429480  41.8229960  17.6558730
  79.2540900  41.2386570  16.4410070  77.8712970  39.3673670  17.7766190
  77.9516560  38.4201180  17.8883590  78.7632720  39.6980550  17.8826850
  78.6727680  49.5169060  24.8800730  79.4090160  48.9684520  25.1509300
  79.0568600  50.3825070  24.7406720  75.5573160  45.5842630  20.7542240
  74.6312940  45.8263770  20.7447650  76.0229590  46.4116890  20.6326990
  77.6785960  48.7015130  34.0686310  78.4798690  49.0227180  34.4821710
  77.1637780  48.3410710  34.7906220  81.7829990  48.6899370  16.7026300
  82.5758600  48.9788200  16.2508090  81.2634340  48.2591540  16.0238780
  86.5150590  44.8095000  34.0161720  85.9088750  44.8326600  33.2757470
  86.2104700  44.0778040  34.5528970  87.9450960  48.5375290  32.6271130
  88.8972710  48.4533310  32.5771370  87.7979180  49.2017000  33.3004920
  75.3983770  41.1888590  33.0122360  75.9022790  40.6095870  33.5838590
  74.6591190  41.4728820  33.5498730  82.3007390  43.9102780  16.5668650
  82.1958030  43.2955130  17.2930030  82.1331610  43.3868670  15.7831660
  82.4521710  42.5959580  32.5457880  81.6867380  43.1644580  32.4612550
  82.6337670  42.3035790  31.6526110  85.5410120  42.9722810  17.1710640
  84.9920220  43.4192110  17.8153380  86.1629380  42.4672060  17.6948310
  89.5945060  44.3264910  33.1032900  90.3354530  44.6640670  32.6000360
  88.8317740  44.4956970  32.5502670  77.4306850  39.3318180  33.9072430
  77.4712190  39.0332050  34.8157660  78.2852350  39.7325790  33.7479950
  81.2085240  41.9313730  19.0675940  81.6301660  41.7653600  19.9107330
  81.3336080  41.1213960  18.5731080  79.3712660  37.9110280  31.8746920
  78.8409120  37.4201230  31.2470260  80.0400730  38.3394480  31.3404850
  83.7212880  40.9551340  16.3153040  84.2418540  40.2400360  15.9494190
  84.3681280  41.5937210  16.6153550  88.2690720  42.3779740  31.6388110
  88.6831740  42.5324820  32.4878530  87.3341720  42.5034960  31.8013890
  88.7412890  39.7175900  33.6427260  89.3233660  38.9628220  33.5547740
  88.9174660  40.2483340  32.8658740  79.8584960  34.8772650  31.9544210
  79.7641830  34.2593400  31.2295080  79.2782350  35.6038940  31.7274120
  82.6246400  33.4345890  28.9871600  82.1763700  33.4570150  28.1417150
  81.9911600  33.0364910  29.5841900  83.0305950  42.3300220  29.6084040
  83.4494060  43.1732950  29.4360280  82.1114580  42.4672260  29.3790820
  85.3669850  40.0616400  30.9921880  85.4866060  39.4657540  31.7316720
  86.2263850  40.0986090  30.5723180  87.7057750  40.6153590  29.5684390
  87.1792970  41.1396210  28.9649530  88.0489090  41.2480980  30.1994120
  80.1044140  38.0046960  16.0134100  79.9033200  37.1414320  16.3747440
  79.9336190  37.9180320  15.0755700  80.8813370  48.6353230  30.7241770
  80.3434460  49.3599290  30.4050470  81.1347330  48.1583570  29.9339110
  82.1338620  36.6037750  32.2497700  82.7238310  36.2953600  32.9375520
  81.3158860  36.1317500  32.4057600  86.9532050  36.2203560  32.4830720
  86.2647570  35.5585100  32.4180710  87.6738070  35.7741830  32.9279180
  87.5832450  32.8155190  18.5420980  87.8634740  31.9723090  18.8980400
  86.8098180  33.0478300  19.0559730  78.9026940  35.1047580  16.0011980
  79.2052840  35.1115010  15.0931130  79.6421530  34.7545440  16.4979640
  83.7375580  49.8704440  30.9828420  83.6634280  50.7739580  31.2900790
  82.8354420  49.5516340  30.9550490  82.1211870  34.0482200  16.9868180
  81.7733870  33.3706190  16.4070630  82.3224640  33.5871710  17.8011570
  84.2860910  49.0362950  18.6054780  85.1811700  49.3747920  18.6273540
  84.3178540  48.3142360  17.9779060  77.9257070  44.4090000  16.8341780
  78.3631940  44.9519670  17.4899360  78.4104800  43.5836950  16.8438120
  75.1402870  47.1979030  24.2862040  75.4705880  46.3300090  24.0540680
  75.5693870  47.4037550  25.1167000  79.7364790  45.5288040  21.9464010
  79.4360330  45.4053010  22.8467920  79.6302280  44.6696630  21.5379740
  75.6293080  48.0649620  27.0243670  75.1924070  48.2450420  27.8567820
  76.1970760  48.8224240  26.8825390  75.4617510  40.5769850  23.3832550
  74.8066350  40.3081490  22.7392250  76.2995460  40.4674330  22.9334530
  89.9506900  44.2918600  29.4097140  89.1366740  44.7215760  29.6722930
  90.3581100  44.9037010  28.7966190  88.4107950  35.3711140  17.6051040
  88.8292830  35.1842120  16.7647700  88.1044010  34.5190190  17.9153970
  76.4993440  40.9622420  27.9235890  76.8666480  40.8749820  28.8031910
  75.9304260  40.1988970  27.8242750  76.0509440  37.8731510  31.8294310
  75.1565490  37.8398270  32.1688020  76.5906990  38.0718300  32.5945560
  89.7385370  34.6563230  33.7146060  90.6155550  34.6646630  34.0980060
  89.7506210  33.9194070  33.1038410  74.6755590  37.7868780  19.3257880
  73.7719670  38.0498980  19.1509540  75.1596210  38.0579950  18.5457840
  77.2182800  36.8434320  17.2352260  77.9274500  36.4217540  16.7499540
  76.5022740  36.9109550  16.6035610  76.8656960  32.8973650  16.2754910
  77.5885090  33.4382590  16.5936130  77.1381480  32.6237070  15.3996450
  76.5549150  32.1479840  26.1777530  77.2025340  31.5977220  25.7372690
  76.9750990  32.4022990  26.9993340  90.0082950  49.0437200  22.9365410
  90.6042020  48.7221770  22.2599830  90.2661100  48.5709020  23.7278680
  76.3081150  32.3035510  28.9202850  75.9595970  32.7599330  29.6861030
  75.9768850  31.4092640  29.0025280  77.9145520  45.4755110  33.0856040
  77.8715150  45.1048020  33.9670500  78.0456530  46.4132680  33.2257860
  81.6151550  47.0314700  28.6865760  81.3742910  47.2989260  27.7996280
  82.5554190  47.2020430  28.7416620  83.8205970  33.4947390  32.4422270
  83.7594860  34.0869220  33.1917680  84.7606350  33.3873350  32.2972530
  86.4580530  33.1517450  32.0814560  87.0720940  33.4696740  31.4195640
  87.0030090  32.6666040  32.7010420  76.9801790  31.8311710  32.1953620
  77.5284780  31.6499760  31.4319730  77.0457100  31.0405820  32.7309930
  77.7533550  48.4217360  30.2053820  77.1593870  48.2902060  30.9443860
  77.7457390  47.5855500  29.7395920  87.1988570  31.7149590  28.4083850
  86.3248410  32.0484700  28.2056780  87.0899320  31.2422770  29.2335720
  88.1060550  33.9220460  29.7925570  87.7773910  33.1072220  29.4127300
  89.0542850  33.8790270  29.6691260  90.5595160  49.6932500  26.7663140
  90.0998130  50.4448310  26.3921160  89.9307620  48.9738970  26.7077940
  77.3845780  45.7875740  29.1561860  76.6579840  45.1681030  29.0887810
  77.4454930  46.1816350  28.2859940  80.9890880  48.0020740  25.9411270
  81.5055900  47.3908100  25.4159530  81.6388260  48.5049520  26.4322280
  83.7286380  48.8929230  26.7680250  84.0164190  48.6383530  25.8913260
  84.2409600  48.3406590  27.3585820  84.9463390  32.6319430  27.3476760
  84.1635180  33.1064930  27.6273520  84.6526320  31.7274260  27.2389940
  89.4984460  33.3342530  25.3925850  89.9392550  33.2787630  24.5447450
  89.2292050  34.2500540  25.4636030  75.6675780  49.1050130  22.3658620
  75.4997820  48.4720810  23.0640510  74.8010290  49.3109530  22.0152810
  76.2903800  32.9366910  19.8690480  77.0483160  33.0495790  19.2954510
  75.8280970  33.7736110  19.8233910  82.8317610  35.0506180  22.8592790
  82.0192120  34.6763070  22.5188670  83.3359250  34.2951260  23.1613980
  87.3342590  31.7148630  24.0975860  87.9371960  32.2868840  24.5724380
  86.5935580  32.2788070  23.8749760  90.4777190  32.1170190  19.3716140
  90.6727820  33.0153640  19.6383570  89.6907060  31.8857270  19.8649090
  77.2738480  47.7983360  19.8108760  76.7486100  48.1791390  19.1070720
  77.1983060  48.4234130  20.5318470  78.6628950  33.4630960  18.4092450
  79.1921710  32.6760760  18.2800400  79.2957270  34.1422150  18.6427980
  80.8566790  33.2006100  21.4637840  80.2269530  32.4993410  21.6307970
  80.3171930  33.9610230  21.2471000  83.7958740  49.8145330  34.1348450
  84.7226050  49.5789600  34.1784410  83.7809170  50.6417330  33.6534480
  80.9822350  32.4790080  33.8990330  80.7006620  32.9823680  33.1351150
  81.3642050  31.6811830  33.5332460  79.8731450  49.7465740  18.6858010
  80.6050270  49.4625020  18.1381900  80.1325120  49.5079020  19.5757390
  79.0346240  45.8630470  18.6904340  78.4055120  46.3315570  19.2390170
  79.1494070  45.0179690  19.1250530  87.5837810  31.8943660  34.4770800
  87.4703260  32.2138270  35.3722320  88.4007550  32.2956170  34.1808080
  86.4895960  39.9136130   4.8405540  86.4090010  38.9990740   4.5697250
  86.0760380  40.4103200   4.1345250  84.6214000  41.6915150   6.7214810
  83.8456100  41.2115590   7.0113380  85.2726930  41.0120800   6.5470970
  78.6379830  42.0034960   7.5990570  77.8064710  41.7483670   7.9987080
  79.2460810  42.0745730   8.3348490  88.6421430  46.0975340   5.5013940
  88.1802960  45.3262580   5.8301110  89.4546980  46.1241410   6.0066390
  78.6181090  46.0375050   7.7948590  78.9209130  45.1472790   7.6158810
  79.3624680  46.5945270   7.5670840  75.0104790  39.5642500   7.2672660
  75.5820900  38.7964700   7.2676300  75.0106330  39.8631260   6.3579270
  84.8684740  48.3833350   5.1217930  84.2496180  48.8390850   4.5512370
  85.7236520  48.5384810   4.7207630  84.0622990  44.3672340   6.7284970
  83.9931270  43.4262280   6.5674100  84.8242850  44.4573750   7.3007540
  76.2529660  34.9726860   9.0541590  76.0732500  34.0752610   9.3344350
  75.8509740  35.5198730   9.7288540  85.0928160  37.1742720   6.9553900
  85.4692980  36.3014600   6.8427570  84.9947670  37.5101420   6.0644340
  79.2233170  35.5468350   2.4171340  79.3299920  36.4472080   2.7240100
  78.3125530  35.4986320   2.1265990  88.8752280  34.6693160   3.8882240
  89.6961900  34.1789730   3.9307720  88.9086360  35.2590820   4.6414080
  76.8716330  37.4687360   7.6623930  77.5526440  37.7325730   8.2811330
  76.5564380  36.6288230   7.9961940  81.0640900  38.5154720   6.7496520
  81.5719120  39.0135690   7.3901540  81.5954140  37.7389920   6.5735880
  79.3477000  33.1553280  11.0159940  79.3495440  33.6725670  10.2105840
  78.5181310  32.6783460  10.9929870  85.7348090  43.2672590   2.5149840
  85.1165360  43.7322040   1.9512560  86.2471340  43.9600070   2.9319350
  80.5979850  42.7948460   9.1933440  80.2649230  43.4217380   9.8354510
  80.7746530  43.3210340   8.4135110  89.1113760  36.6093540   6.6609780
  88.4069330  36.8978430   7.2412890  89.4725920  37.4193650   6.3009340
  79.0292330  34.8663240   9.0230390  79.3709140  35.7105290   8.7284260
  78.0908140  35.0146980   9.1395730  79.8098950  44.7629260  11.0082620
  80.4272950  45.4380340  10.7267070  78.9492070  45.1717240  10.9170120
  82.7120220  32.3545510   5.3474980  83.0195200  31.7992400   4.6310480
  81.7820920  32.4889970   5.1647970  88.2635280  48.0712800   7.6382440
  88.2762440  47.6675090   6.7704700  87.7110500  48.8460090   7.5343870
  89.5580700  44.7929020   2.7272610  89.4477030  43.8503350   2.8522030
  89.5548950  45.1544660   3.6135370  87.6620720  42.9742640   8.9665050
  88.0789510  42.7602750   8.1318510  88.3860540  43.2315430   9.5373670
  85.1000980  40.4194340   2.0835100  84.1730260  40.3531720   2.3123570
  85.2525800  41.3574470   1.9690340  89.1298270  41.9814640   2.5870350
  88.5110690  41.6434190   1.9396650  89.1122720  41.3374400   3.2949540
  88.5724830  38.1599180  10.0036160  88.1596010  38.9852890  10.2576150
  87.8400780  37.5744220   9.8112520  80.7057620  40.9459080   4.8654830
  80.3014620  40.2336330   4.3700730  80.7920740  40.6012320   5.7542870
  81.1739320  44.6326640   7.0294040  80.8767610  44.0272110   6.3501820
  82.1239140  44.6703950   6.9183400  79.4186240  37.7202290   8.6453870
  79.9700830  37.8297630   7.8707120  79.9329750  38.0939890   9.3609100
  89.2624930  48.2058510  10.6917140  88.7855490  49.0130700  10.4989750
  88.5786720  47.5536840  10.8443350  80.2657750  44.3708330  13.6801840
  79.3686280  44.5948300  13.9275240  80.2910620  44.4943270  12.7313240
  79.0928970  41.2421650  12.2559210  78.9536740  42.1144450  12.6246610
  78.2110330  40.8994460  12.1107150  85.4158350  46.1597520   3.5624340
  85.8554260  46.9021850   3.1479730  85.3545240  46.4024090   4.4863300
  80.8909320  47.1843350  14.4644360  80.8624750  47.5886300  13.5972790
  80.7274290  46.2553710  14.3015960  77.4062250  39.8404060   2.3661480
  77.2859850  40.5666150   1.7542750  77.0963140  39.0706970   1.8889390
  75.0447620  43.0119200   8.1730120  75.1228040  43.1467970   7.2285840
  75.6589300  42.3035090   8.3658240  76.2895250  44.7119390   4.5836300
  75.8823330  44.8533980   3.7289900  77.1808260  44.4279550   4.3807510
  86.1074130  48.8611300  11.4903350  86.6218800  48.7719310  12.2925780
  85.2643210  49.2071000  11.7831260  80.5616910  48.9265170   2.6958970
  80.3859390  48.0100710   2.4826770  79.7072650  49.2852460   2.9356770
  87.3504590  48.2816910   3.5533840  87.8061540  47.5006290   3.8672460
  87.6897110  48.9923730   4.0975020  75.1007140  44.0533370  10.7124580
  75.2638180  43.5838730   9.8943950  75.5659590  43.5456930  11.3773420
  79.8725910  33.1839130   5.7485150  79.4294060  33.9648670   5.4169670
  80.4310900  33.5069020   6.4556090  84.1595720  36.0507650  11.3520470
  83.6975090  36.2590670  12.1640410  83.7573830  35.2367000  11.0491140
  89.1600230  37.2716600  12.4817130  88.3093820  36.9722350  12.8026200
  89.0002020  37.5158610  11.5700950  86.2549940  38.7718350  14.5815920
  86.5803350  37.9382100  14.2418150  87.0430270  39.2946870  14.7294250
  81.9101810  33.7286460   7.6074750  82.2074140  34.6349290   7.5266770
  82.4587370  33.2405240   6.9934320  79.6640130  38.3072700   3.4766400
  79.4381050  38.0909870   4.3813020  78.8832660  38.7401160   3.1312370
  82.1039340  39.2058280  14.1426670  82.0082940  38.2653010  13.9927070
  82.9471320  39.4273350  13.7474740  85.5002760  36.9499610   4.1060330
  85.8932330  37.2671810   3.2929020  85.8619610  36.0711490   4.2204850
  77.2349880  35.6171950  12.2960450  76.8413270  36.4647160  12.5033230
  76.5468280  34.9798320  12.4869090  83.8094930  35.7006920  15.3657190
  83.1193250  35.5079120  16.0003280  84.5527230  35.9841560  15.8981490
  74.5366930  33.5400410   6.3290530  74.2479980  34.1103270   7.0415510
  75.2812690  33.0604860   6.6921760  86.0857900  39.5405360   8.2011110
  85.3539020  40.0492170   8.5501210  85.6882240  38.7235340   7.8999890
  82.5235290  36.2159560   6.6063600  82.5271350  35.7749510   5.7568140
  83.4186410  36.5376890   6.7135420  78.3737670  36.0986050   5.5657810
  78.0337720  36.5761280   6.3224860  77.6114990  35.6451170   5.2058910
  86.5483810  34.9939040   7.6134050  86.5656550  35.4447690   8.4575900
  86.2999390  34.0944680   7.8267490  89.9754560  32.4071220  13.4520430
  90.3000330  31.6760880  13.9778410  90.0111070  32.0884860  12.5501420
  76.6746120  43.4284800  12.8720390  76.2900910  42.7878470  13.4703350
  76.9858310  44.1320920  13.4415120  82.8243260  40.2761340   8.3529010
  83.1913390  39.8019910   9.0990350  82.6348320  41.1502910   8.6937350
  75.6883750  35.0205030   4.4822480  75.4030670  34.6560700   5.3201100
  75.6262610  34.2885490   3.8685620  80.6142630  39.3169980  10.6713220
  80.3099700  40.1961960  10.8963580  81.5689090  39.3769770  10.7070660
  89.9012400  42.5196330   7.0606460  90.6211520  43.0151620   6.6702570
  89.6994220  41.8414220   6.4160330  85.2831200  42.5905390  12.9475460
  85.2168510  41.6701060  12.6933050  84.6536340  42.6880830  13.6620100
  79.1861820  43.1911350   4.9058880  79.7040490  42.3879610   4.8515770
  78.7345840  43.1290490   5.7475710  76.6706360  40.1572720  11.8184580
  76.3121300  40.8226570  12.4057920  76.3760920  39.3256270  12.1897200
  79.8719480  40.6156960  14.7024130  79.5719620  40.7614140  13.8051950
  80.6430720  40.0562250  14.6097520  85.2147930  45.4125960  12.6979260
  85.2292470  44.4806920  12.4798170  84.5073030  45.4985720  13.3369030
  86.9558730  43.7793470   5.5431690  87.3082550  43.1821600   4.8833060
  86.0721060  43.4537700   5.7139940  83.0422010  44.5391160   2.9502100
  83.7293140  45.0860370   3.3309690  82.2554430  45.0831890   2.9851710
  82.3449220  41.5437190   2.5627460  82.8012000  42.3542440   2.7887650
  81.9937430  41.2260330   3.3945950  84.6481830  47.0543530   9.7919760
  85.2924050  47.2602910  10.4693180  85.0111270  46.2931930   9.3390610
  78.2461000  31.8874840   3.0349980  78.1175630  31.8792740   3.9834900
  77.4223020  32.2257930   2.6840990  85.9213910  45.0575880   8.5097210
  86.5636140  44.3569040   8.6229380  86.4463260  45.8374320   8.3294100
  87.6951530  45.8570780  11.7133270  88.0307770  46.4437470  12.3911190
  86.7751870  45.7263490  11.9431060  75.2454930  33.6465960  12.4956680
  74.5313450  33.8462880  13.1009290  75.6649970  32.8705530  12.8671480
  75.5327520  47.6346220  13.4823210  75.6418640  46.6940960  13.3418600
  74.8808080  47.9000970  12.8336940  83.5240110  45.9062110  14.8821330
  83.2036980  45.1871350  15.4267020  82.8498470  46.5817180  14.9557390
  86.7393710  36.1388270  10.2458130  87.1074530  35.3183480  10.5737700
  85.8791910  36.1990160  10.6613780  82.0739770  37.3731160   2.4703570
  81.3655920  37.8417500   2.9117180  82.3584250  36.7153170   3.1048760
  83.6995700  38.7927860  10.4696100  84.1980950  39.2673680  11.1347950
  83.8418650  37.8691380  10.6766130  86.1055200  34.0981820   3.9099360
  85.9822980  34.1167950   2.9608870  87.0539760  34.1460760   4.0297760
  83.1931990  49.3337120   3.1827340  83.4473490  49.2958510   2.2606710
  82.2444470  49.2070450   3.1755590  89.1984570  40.2529000   4.7585850
  88.2574710  40.2679230   4.9333540  89.5128640  39.4664960   5.2046150
  78.6727680  49.5169060   6.1057240  79.4090160  48.9684520   6.3765810
  79.0568600  50.3825070   5.9663230  75.5573160  45.5842630   1.9798750
  74.6312940  45.8263770   1.9704160  76.0229590  46.4116890   1.8583500
  77.6785960  48.7015130  15.2942820  78.4798690  49.0227180  15.7078220
  77.1637780  48.3410710  16.0162730  86.5150590  44.8095000  15.2418230
  85.9088750  44.8326600  14.5013980  86.2104700  44.0778040  15.7785480
  87.9450960  48.5375290  13.8527640  88.8972710  48.4533310  13.8027880
  87.7979180  49.2017000  14.5261430  75.3983770  41.1888590  14.2378870
  75.9022790  40.6095870  14.8095100  74.6591190  41.4728820  14.7755240
  82.4521710  42.5959580  13.7714390  81.6867380  43.1644580  13.6869060
  82.6337670  42.3035790  12.8782620  89.5945060  44.3264910  14.3289410
  90.3354530  44.6640670  13.8256870  88.8317740  44.4956970  13.7759180
  77.4306850  39.3318180  15.1328940  77.4712190  39.0332050  16.0414170
  78.2852350  39.7325790  14.9736460  79.3712660  37.9110280  13.1003430
  78.8409120  37.4201230  12.4726770  80.0400730  38.3394480  12.5661360
  88.2690720  42.3779740  12.8644620  88.6831740  42.5324820  13.7135040
  87.3341720  42.5034960  13.0270400  88.7412890  39.7175900  14.8683770
  89.3233660  38.9628220  14.7804250  88.9174660  40.2483340  14.0915250
  79.8584960  34.8772650  13.1800720  79.7641830  34.2593400  12.4551590
  79.2782350  35.6038940  12.9530630  82.6246400  33.4345890  10.2128110
  82.1763700  33.4570150   9.3673660  81.9911600  33.0364910  10.8098410
  83.0305950  42.3300220  10.8340550  83.4494060  43.1732950  10.6616790
  82.1114580  42.4672260  10.6047330  85.3669850  40.0616400  12.2178390
  85.4866060  39.4657540  12.9573230  86.2263850  40.0986090  11.7979690
  87.7057750  40.6153590  10.7940900  87.1792970  41.1396210  10.1906040
  88.0489090  41.2480980  11.4250630  80.8813370  48.6353230  11.9498280
  80.3434460  49.3599290  11.6306980  81.1347330  48.1583570  11.1595620
  82.1338620  36.6037750  13.4754210  82.7238310  36.2953600  14.1632030
  81.3158860  36.1317500  13.6314110  86.9532050  36.2203560  13.7087230
  86.2647570  35.5585100  13.6437220  87.6738070  35.7741830  14.1535690
  83.7375580  49.8704440  12.2084930  83.6634280  50.7739580  12.5157300
  82.8354420  49.5516340  12.1807000  75.1402870  47.1979030   5.5118550
  75.4705880  46.3300090   5.2797190  75.5693870  47.4037550   6.3423510
  79.7364790  45.5288040   3.1720520  79.4360330  45.4053010   4.0724430
  79.6302280  44.6696630   2.7636250  75.6293080  48.0649620   8.2500180
  75.1924070  48.2450420   9.0824330  76.1970760  48.8224240   8.1081900
  75.4617510  40.5769850   4.6089060  74.8066350  40.3081490   3.9648760
  76.2995460  40.4674330   4.1591040  89.9506900  44.2918600  10.6353650
  89.1366740  44.7215760  10.8979440  90.3581100  44.9037010  10.0222700
  76.4993440  40.9622420   9.1492400  76.8666480  40.8749820  10.0288420
  75.9304260  40.1988970   9.0499260  76.0509440  37.8731510  13.0550820
  75.1565490  37.8398270  13.3944530  76.5906990  38.0718300  13.8202070
  89.7385370  34.6563230  14.9402570  90.6155550  34.6646630  15.3236570
  89.7506210  33.9194070  14.3294920  76.5549150  32.1479840   7.4034040
  77.2025340  31.5977220   6.9629200  76.9750990  32.4022990   8.2249850
  90.0082950  49.0437200   4.1621920  90.6042020  48.7221770   3.4856340
  90.2661100  48.5709020   4.9535190  76.3081150  32.3035510  10.1459360
  75.9595970  32.7599330  10.9117540  75.9768850  31.4092640  10.2281790
  77.9145520  45.4755110  14.3112550  77.8715150  45.1048020  15.1927010
  78.0456530  46.4132680  14.4514370  81.6151550  47.0314700   9.9122270
  81.3742910  47.2989260   9.0252790  82.5554190  47.2020430   9.9673130
  83.8205970  33.4947390  13.6678780  83.7594860  34.0869220  14.4174190
  84.7606350  33.3873350  13.5229040  86.4580530  33.1517450  13.3071070
  87.0720940  33.4696740  12.6452150  87.0030090  32.6666040  13.9266930
  76.9801790  31.8311710  13.4210130  77.5284780  31.6499760  12.6576240
  77.0457100  31.0405820  13.9566440  77.7533550  48.4217360  11.4310330
  77.1593870  48.2902060  12.1700370  77.7457390  47.5855500  10.9652430
  87.1988570  31.7149590   9.6340360  86.3248410  32.0484700   9.4313290
  87.0899320  31.2422770  10.4592230  88.1060550  33.9220460  11.0182080
  87.7773910  33.1072220  10.6383810  89.0542850  33.8790270  10.8947770
  90.5595160  49.6932500   7.9919650  90.0998130  50.4448310   7.6177670
  89.9307620  48.9738970   7.9334450  77.3845780  45.7875740  10.3818370
  76.6579840  45.1681030  10.3144320  77.4454930  46.1816350   9.5116450
  80.9890880  48.0020740   7.1667780  81.5055900  47.3908100   6.6416040
  81.6388260  48.5049520   7.6578790  83.7286380  48.8929230   7.9936760
  84.0164190  48.6383530   7.1169770  84.2409600  48.3406590   8.5842330
  84.9463390  32.6319430   8.5733270  84.1635180  33.1064930   8.8530030
  84.6526320  31.7274260   8.4646450  89.4984460  33.3342530   6.6182360
  89.9392550  33.2787630   5.7703960  89.2292050  34.2500540   6.6892540
  75.6675780  49.1050130   3.5915130  75.4997820  48.4720810   4.2897020
  74.8010290  49.3109530   3.2409320  82.8317610  35.0506180   4.0849300
  82.0192120  34.6763070   3.7445180  83.3359250  34.2951260   4.3870490
  87.3342590  31.7148630   5.3232370  87.9371960  32.2868840   5.7980890
  86.5935580  32.2788070   5.1006270  80.8566790  33.2006100   2.6894350
  80.2269530  32.4993410   2.8564480  80.3171930  33.9610230   2.4727510
  83.7958740  49.8145330  15.3604960  84.7226050  49.5789600  15.4040920
  83.7809170  50.6417330  14.8790990  80.9822350  32.4790080  15.1246840
  80.7006620  32.9823680  14.3607660  81.3642050  31.6811830  14.7588970
  87.5837810  31.8943660  15.7027310  87.4703260  32.2138270  16.5978830
  88.4007550  32.2956170  15.4064590  86.4895960  21.1392640  61.1636010
  86.4090010  20.2247250  60.8927720  86.0760380  21.6359710  60.4575720
  84.6214000  22.9171660  63.0445280  83.8456100  22.4372100  63.3343850
  85.2726930  22.2377310  62.8701440  78.6379830  23.2291470  63.9221040
  77.8064710  22.9740180  64.3217550  79.2460810  23.3002240  64.6578960
  88.6421430  27.3231850  61.8244410  88.1802960  26.5519090  62.1531580
  89.4546980  27.3497920  62.3296860  78.6181090  27.2631560  64.1179060
  78.9209130  26.3729300  63.9389280  79.3624680  27.8201780  63.8901310
  77.0471780  18.1893360  57.7063430  76.1588480  18.5309330  57.6043310
  77.3312970  17.9893680  56.8144260  75.0104790  20.7899010  63.5903130
  75.5820900  20.0221210  63.5906770  75.0106330  21.0887770  62.6809740
  84.8684740  29.6089860  61.4448400  84.2496180  30.0647360  60.8742840
  85.7236520  29.7641320  61.0438100  84.0622990  25.5928850  63.0515440
  83.9931270  24.6518790  62.8904570  84.8242850  25.6830260  63.6238010
  76.2529660  16.1983370  65.3772060  76.0732500  15.3009120  65.6574820
  75.8509740  16.7455240  66.0519010  85.0928160  18.3999230  63.2784370
  85.4692980  17.5271110  63.1658040  84.9947670  18.7357930  62.3874810
  79.2233170  16.7724860  58.7401810  79.3299920  17.6728590  59.0470570
  78.3125530  16.7242830  58.4496460  88.8752280  15.8949670  60.2112710
  89.6961900  15.4046240  60.2538190  88.9086360  16.4847330  60.9644550
  76.8716330  18.6943870  63.9854400  77.5526440  18.9582240  64.6041800
  76.5564380  17.8544740  64.3192410  81.0640900  19.7411230  63.0726990
  81.5719120  20.2392200  63.7132010  81.5954140  18.9646430  62.8966350
  79.3477000  14.3809790  67.3390410  79.3495440  14.8982180  66.5336310
  78.5181310  13.9039970  67.3160340  85.7348090  24.4929100  58.8380310
  85.1165360  24.9578550  58.2743030  86.2471340  25.1856580  59.2549820
  80.5979850  24.0204970  65.5163910  80.2649230  24.6473890  66.1584980
  80.7746530  24.5466850  64.7365580  89.1113760  17.8350050  62.9840250
  88.4069330  18.1234940  63.5643360  89.4725920  18.6450160  62.6239810
  79.0292330  16.0919750  65.3460860  79.3709140  16.9361800  65.0514730
  78.0908140  16.2403490  65.4626200  79.8098950  25.9885770  67.3313090
  80.4272950  26.6636850  67.0497540  78.9492070  26.3973750  67.2400590
  75.1031290  25.1785630  56.2119940  74.7259270  25.6672730  55.4804840
  75.3604360  25.8510910  56.8426470  82.7120220  13.5802020  61.6705450
  83.0195200  13.0248910  60.9540950  81.7820920  13.7146480  61.4878440
  88.2635280  29.2969310  63.9612910  88.2762440  28.8931600  63.0935170
  87.7110500  30.0716600  63.8574340  89.5580700  26.0185530  59.0503080
  89.4477030  25.0759860  59.1752500  89.5548950  26.3801170  59.9365840
  87.6620720  24.1999150  65.2895520  88.0789510  23.9859260  64.4548980
  88.3860540  24.4571940  65.8604140  85.1000980  21.6450850  58.4065570
  84.1730260  21.5788230  58.6354040  85.2525800  22.5830980  58.2920810
  85.0870060  17.9167850  55.4032730  84.1473730  18.0781810  55.4885190
  85.4053320  18.6353530  54.8568720  89.1298270  23.2071150  58.9100820
  88.5110690  22.8690700  58.2627120  89.1122720  22.5630910  59.6180010
  88.5724830  19.3855690  66.3266630  88.1596010  20.2109400  66.5806620
  87.8400780  18.8000730  66.1342990  80.7057620  22.1715590  61.1885300
  80.3014620  21.4592840  60.6931200  80.7920740  21.8268830  62.0773340
  81.1739320  25.8583150  63.3524510  80.8767610  25.2528620  62.6732290
  82.1239140  25.8960460  63.2413870  79.4186240  18.9458800  64.9684340
  79.9700830  19.0554140  64.1937590  79.9329750  19.3196400  65.6839570
  89.2624930  29.4315020  67.0147610  88.7855490  30.2387210  66.8220220
  88.5786720  28.7793350  67.1673820  87.3062970  22.4457960  55.9173570
  87.7456250  21.6080390  55.7711390  88.0191390  23.0787360  56.0037710
  85.4158350  27.3854030  59.8854810  85.8554260  28.1278360  59.4710200
  85.3545240  27.6280600  60.8093770  77.4062250  21.0660570  58.6891950
  77.2859850  21.7922660  58.0773220  77.0963140  20.2963480  58.2119860
  75.0447620  24.2375710  64.4960590  75.1228040  24.3724480  63.5516310
  75.6589300  23.5291600  64.6888710  76.2895250  25.9375900  60.9066770
  75.8823330  26.0790490  60.0520370  77.1808260  25.6536060  60.7037980
  88.0828530  30.3723150  57.2417820  87.9229670  30.0826090  58.1399650
  87.9175240  29.5963280  56.7063050  80.5616910  30.1521680  59.0189440
  80.3859390  29.2357220  58.8057240  79.7072650  30.5108970  59.2587240
  87.7854660  27.8810710  55.8015820  87.0919820  27.8788000  55.1418100
  88.5277520  27.4570030  55.3709990  87.3504590  29.5073420  59.8764310
  87.8061540  28.7262800  60.1902930  87.6897110  30.2180240  60.4205490
  75.1007140  25.2789880  67.0355050  75.2638180  24.8095240  66.2174420
  75.5659590  24.7713440  67.7003890  79.8725910  14.4095640  62.0715620
  79.4294060  15.1905180  61.7400140  80.4310900  14.7325530  62.7786560
  82.9884730  14.0306340  56.9521450  82.3638910  14.0266210  57.6774760
  82.9014850  13.1637300  56.5557420  81.9101810  14.9542970  63.9305220
  82.2074140  15.8605800  63.8497240  82.4587370  14.4661750  63.3164790
  79.6640130  19.5329210  59.7996870  79.4381050  19.3166380  60.7043490
  78.8832660  19.9657670  59.4542840  86.8937890  19.5392580  58.3987520
  86.2946780  20.2628380  58.2151140  87.4417500  19.4769360  57.6163970
  85.5002760  18.1756120  60.4290800  85.8932330  18.4928320  59.6159490
  85.8619610  17.2968000  60.5435320  74.5366930  14.7656920  62.6521000
  74.2479980  15.3359780  63.3645980  75.2812690  14.2861370  63.0152230
  74.7237160  18.7077040  53.8623720  74.6411830  19.6507800  54.0038710
  74.3720220  18.5651950  52.9836070  86.0857900  20.7661870  64.5241580
  85.3539020  21.2748680  64.8731680  85.6882240  19.9491850  64.2230360
  82.5235290  17.4416070  62.9294070  82.5271350  17.0006020  62.0798610
  83.4186410  17.7633400  63.0365890  78.3737670  17.3242560  61.8888280
  78.0337720  17.8017790  62.6455330  77.6114990  16.8707680  61.5289380
  82.5855440  18.4428150  55.9200830  82.7068260  18.4014630  56.8686650
  82.2003950  19.3052300  55.7647560  86.5483810  16.2195550  63.9364520
  86.5656550  16.6704200  64.7806370  86.2999390  15.3201190  64.1497960
  81.5976940  20.7529290  55.3184130  81.0293840  20.3047540  54.6920040
  82.3065940  21.1122070  54.7849280  82.8243260  21.5017850  64.6759480
  83.1913390  21.0276420  65.4220820  82.6348320  22.3759420  65.0167820
  75.6883750  16.2461540  60.8052950  75.4030670  15.8817210  61.6431570
  75.6262610  15.5142000  60.1916090  80.6142630  20.5426490  66.9943690
  80.3099700  21.4218470  67.2194050  81.5689090  20.6026280  67.0301130
  79.1424420  24.7487480  57.5910540  78.3686680  24.2085100  57.4309260
  79.8719050  24.2294090  57.2528300  89.9012400  23.7452840  63.3836930
  90.6211520  24.2408130  62.9933040  89.6994220  23.0670730  62.7390800
  85.3622340  15.1390800  57.5266320  84.5486950  14.6403970  57.4511630
  85.1684290  15.9789050  57.1102670  88.0770730  19.5110450  55.8228480
  88.9650350  19.8227680  55.6479820  88.0475820  18.6382700  55.4309060
  79.1861820  24.4167860  61.2289350  79.7040490  23.6136120  61.1746240
  78.7345840  24.3547000  62.0706180  84.0731320  25.6834140  56.5016650
  84.4147020  26.4276370  56.0059970  83.2444030  25.9965260  56.8641480
  86.9558730  25.0049980  61.8662160  87.3082550  24.4078110  61.2063530
  86.0721060  24.6794210  62.0370410  83.0422010  25.7647670  59.2732570
  83.7293140  26.3116880  59.6540160  82.2554430  26.3088400  59.3082180
  75.1814410  21.3820490  54.7649650  76.0509260  21.6645290  55.0485570
  74.6904730  22.1956360  54.6498460  82.3449220  22.7693700  58.8857930
  82.8012000  23.5798950  59.1118120  81.9937430  22.4516840  59.7176420
  84.6481830  28.2800040  66.1150230  85.2924050  28.4859420  66.7923650
  85.0111270  27.5188440  65.6621080  78.2461000  13.1131350  59.3580450
  78.1175630  13.1049250  60.3065370  77.4223020  13.4514440  59.0071460
  85.9213910  26.2832390  64.8327680  86.5636140  25.5825550  64.9459850
  86.4463260  27.0630830  64.6524570  89.7669630  26.5681010  54.5566820
  89.5407210  25.8511450  55.1491460  89.3765830  26.3193450  53.7188570
  75.5485660  30.5947870  55.3311280  75.9083300  31.1937210  54.6768550
  75.4078000  31.1407760  56.1046310  89.3485880  24.4852950  56.2180980
  89.0607580  24.9465640  57.0058860  90.1438050  24.0250720  56.4865200
  81.5654280  27.9779070  56.1484950  81.5564380  28.7108760  55.5329460
  80.6452640  27.7310650  56.2411910  77.1660920  23.1993960  56.8931710
  76.5588870  23.9392860  56.9027010  77.6410270  23.2893320  56.0669910
  86.7393710  17.3644780  66.5688600  87.1074530  16.5439990  66.8968170
  85.8791910  17.4246670  66.9844250  90.1055740  16.3201720  57.3776160
  89.4768900  16.4247390  56.6634390  89.6107660  16.5398500  58.1670040
  84.5513880  28.0407310  54.8110140  84.6525860  27.8371300  53.8812120
  83.6515620  27.7865590  55.0157920  82.0739770  18.5987670  58.7934040
  81.3655920  19.0674010  59.2347650  82.3584250  17.9409680  59.4279230
  83.6995700  20.0184370  66.7926570  84.1980950  20.4930190  67.4578420
  83.8418650  19.0947890  66.9996600  86.1055200  15.3238330  60.2329830
  85.9822980  15.3424460  59.2839340  87.0539760  15.3717270  60.3528230
  83.1931990  30.5593630  59.5057810  83.4473490  30.5215020  58.5837180
  82.2444470  30.4326960  59.4986060  80.2774790  16.9072750  56.1684750
  81.1265320  17.3442900  56.1024940  79.9106060  17.2193010  56.9956810
  89.1984570  21.4785510  61.0816320  88.2574710  21.4935740  61.2564010
  89.5128640  20.6921470  61.5276620  79.1766210  23.1605110  54.6420280
  79.9429480  23.0486470  55.2045710  79.2540900  22.4643080  53.9897050
  77.8712970  20.5930180  55.3253170  77.9516560  19.6457690  55.4370570
  78.7632720  20.9237060  55.4313830  78.6727680  30.7425570  62.4287710
  79.4090160  30.1941030  62.6996280  79.0568600  31.6081580  62.2893700
  75.5573160  26.8099140  58.3029220  74.6312940  27.0520280  58.2934630
  76.0229590  27.6373400  58.1813970  81.7829990  29.9155880  54.2513280
  82.5758600  30.2044710  53.7995070  81.2634340  29.4848050  53.5725760
  82.3007390  25.1359290  54.1155630  82.1958030  24.5211640  54.8417010
  82.1331610  24.6125180  53.3318640  85.5410120  24.1979320  54.7197620
  84.9920220  24.6448620  55.3640360  86.1629380  23.6928570  55.2435290
  81.2085240  23.1570240  56.6162920  81.6301660  22.9910110  57.4594310
  81.3336080  22.3470470  56.1218060  83.7212880  22.1807850  53.8640020
  84.2418540  21.4656870  53.4981170  84.3681280  22.8193720  54.1640530
  82.6246400  14.6602400  66.5358580  82.1763700  14.6826660  65.6904130
  81.9911600  14.2621420  67.1328880  83.0305950  23.5556730  67.1571020
  83.4494060  24.3989460  66.9847260  82.1114580  23.6928770  66.9277800
  87.7057750  21.8410100  67.1171370  87.1792970  22.3652720  66.5136510
  88.0489090  22.4737490  67.7481100  80.1044140  19.2303470  53.5621080
  79.9033200  18.3670830  53.9234420  79.9336190  19.1436830  52.6242680
  87.5832450  14.0411700  56.0907960  87.8634740  13.1979600  56.4467380
  86.8098180  14.2734810  56.6046710  78.9026940  16.3304090  53.5498960
  79.2052840  16.3371520  52.6418110  79.6421530  15.9801950  54.0466620
  82.1211870  15.2738710  54.5355160  81.7733870  14.5962700  53.9557610
  82.3224640  14.8128220  55.3498550  84.2860910  30.2619460  56.1541760
  85.1811700  30.6004430  56.1760520  84.3178540  29.5398870  55.5266040
  77.9257070  25.6346510  54.3828760  78.3631940  26.1776180  55.0386340
  78.4104800  24.8093460  54.3925100  75.1402870  28.4235540  61.8349020
  75.4705880  27.5556600  61.6027660  75.5693870  28.6294060  62.6653980
  79.7364790  26.7544550  59.4950990  79.4360330  26.6309520  60.3954900
  79.6302280  25.8953140  59.0866720  75.6293080  29.2906130  64.5730650
  75.1924070  29.4706930  65.4054800  76.1970760  30.0480750  64.4312370
  75.4617510  21.8026360  60.9319530  74.8066350  21.5338000  60.2879230
  76.2995460  21.6930840  60.4821510  89.9506900  25.5175110  66.9584120
  89.1366740  25.9472270  67.2209910  90.3581100  26.1293520  66.3453170
  88.4107950  16.5967650  55.1538020  88.8292830  16.4098630  54.3134680
  88.1044010  15.7446700  55.4640950  76.4993440  22.1878930  65.4722870
  76.8666480  22.1006330  66.3518890  75.9304260  21.4245480  65.3729730
  74.6755590  19.0125290  56.8744860  73.7719670  19.2755490  56.6996520
  75.1596210  19.2836460  56.0944820  77.2182800  18.0690830  54.7839240
  77.9274500  17.6474050  54.2986520  76.5022740  18.1366060  54.1522590
  76.8656960  14.1230160  53.8241890  77.5885090  14.6639100  54.1423110
  77.1381480  13.8493580  52.9483430  76.5549150  13.3736350  63.7264510
  77.2025340  12.8233730  63.2859670  76.9750990  13.6279500  64.5480320
  90.0082950  30.2693710  60.4852390  90.6042020  29.9478280  59.8086810
  90.2661100  29.7965530  61.2765660  76.3081150  13.5292020  66.4689830
  75.9595970  13.9855840  67.2348010  75.9768850  12.6349150  66.5512260
  81.6151550  28.2571210  66.2352740  81.3742910  28.5245770  65.3483260
  82.5554190  28.4276940  66.2903600  87.1988570  12.9406100  65.9570830
  86.3248410  13.2741210  65.7543760  87.0899320  12.4679280  66.7822700
  88.1060550  15.1476970  67.3412550  87.7773910  14.3328730  66.9614280
  89.0542850  15.1046780  67.2178240  90.5595160  30.9189010  64.3150120
  90.0998130  31.6704820  63.9408140  89.9307620  30.1995480  64.2564920
  77.3845780  27.0132250  66.7048840  76.6579840  26.3937540  66.6374790
  77.4454930  27.4072860  65.8346920  80.9890880  29.2277250  63.4898250
  81.5055900  28.6164610  62.9646510  81.6388260  29.7306030  63.9809260
  83.7286380  30.1185740  64.3167230  84.0164190  29.8640040  63.4400240
  84.2409600  29.5663100  64.9072800  84.9463390  13.8575940  64.8963740
  84.1635180  14.3321440  65.1760500  84.6526320  12.9530770  64.7876920
  89.4984460  14.5599040  62.9412830  89.9392550  14.5044140  62.0934430
  89.2292050  15.4757050  63.0123010  75.6675780  30.3306640  59.9145600
  75.4997820  29.6977320  60.6127490  74.8010290  30.5366040  59.5639790
  76.2903800  14.1623420  57.4177460  77.0483160  14.2752300  56.8441490
  75.8280970  14.9992620  57.3720890  82.8317610  16.2762690  60.4079770
  82.0192120  15.9019580  60.0675650  83.3359250  15.5207770  60.7100960
  87.3342590  12.9405140  61.6462840  87.9371960  13.5125350  62.1211360
  86.5935580  13.5044580  61.4236740  90.4777190  13.3426700  56.9203120
  90.6727820  14.2410150  57.1870550  89.6907060  13.1113780  57.4136070
  77.2738480  29.0239870  57.3595740  76.7486100  29.4047900  56.6557700
  77.1983060  29.6490640  58.0805450  78.6628950  14.6887470  55.9579430
  79.1921710  13.9017270  55.8287380  79.2957270  15.3678660  56.1914960
  80.8566790  14.4262610  59.0124820  80.2269530  13.7249920  59.1794950
  80.3171930  15.1866740  58.7957980  79.8731450  30.9722250  56.2344990
  80.6050270  30.6881530  55.6868880  80.1325120  30.7335530  57.1244370
  79.0346240  27.0886980  56.2391320  78.4055120  27.5572080  56.7877150
  79.1494070  26.2436200  56.6737510  86.4895960  21.1392640  42.3892520
  86.4090010  20.2247250  42.1184230  86.0760380  21.6359710  41.6832230
  84.6214000  22.9171660  44.2701790  83.8456100  22.4372100  44.5600360
  85.2726930  22.2377310  44.0957950  78.6379830  23.2291470  45.1477550
  77.8064710  22.9740180  45.5474060  79.2460810  23.3002240  45.8835470
  88.6421430  27.3231850  43.0500920  88.1802960  26.5519090  43.3788090
  89.4546980  27.3497920  43.5553370  78.6181090  27.2631560  45.3435570
  78.9209130  26.3729300  45.1645790  79.3624680  27.8201780  45.1157820
  77.0471780  18.1893360  38.9319940  76.1588480  18.5309330  38.8299820
  77.3312970  17.9893680  38.0400770  75.0104790  20.7899010  44.8159640
  75.5820900  20.0221210  44.8163280  75.0106330  21.0887770  43.9066250
  84.8684740  29.6089860  42.6704910  84.2496180  30.0647360  42.0999350
  85.7236520  29.7641320  42.2694610  84.0622990  25.5928850  44.2771950
  83.9931270  24.6518790  44.1161080  84.8242850  25.6830260  44.8494520
  76.2529660  16.1983370  46.6028570  76.0732500  15.3009120  46.8831330
  75.8509740  16.7455240  47.2775520  85.0928160  18.3999230  44.5040880
  85.4692980  17.5271110  44.3914550  84.9947670  18.7357930  43.6131320
  79.2233170  16.7724860  39.9658320  79.3299920  17.6728590  40.2727080
  78.3125530  16.7242830  39.6752970  88.8752280  15.8949670  41.4369220
  89.6961900  15.4046240  41.4794700  88.9086360  16.4847330  42.1901060
  76.8716330  18.6943870  45.2110910  77.5526440  18.9582240  45.8298310
  76.5564380  17.8544740  45.5448920  81.0640900  19.7411230  44.2983500
  81.5719120  20.2392200  44.9388520  81.5954140  18.9646430  44.1222860
  79.3477000  14.3809790  48.5646920  79.3495440  14.8982180  47.7592820
  78.5181310  13.9039970  48.5416850  85.7348090  24.4929100  40.0636820
  85.1165360  24.9578550  39.4999540  86.2471340  25.1856580  40.4806330
  80.5979850  24.0204970  46.7420420  80.2649230  24.6473890  47.3841490
  80.7746530  24.5466850  45.9622090  89.1113760  17.8350050  44.2096760
  88.4069330  18.1234940  44.7899870  89.4725920  18.6450160  43.8496320
  79.0292330  16.0919750  46.5717370  79.3709140  16.9361800  46.2771240
  78.0908140  16.2403490  46.6882710  79.8098950  25.9885770  48.5569600
  80.4272950  26.6636850  48.2754050  78.9492070  26.3973750  48.4657100
  75.1031290  25.1785630  37.4376450  74.7259270  25.6672730  36.7061350
  75.3604360  25.8510910  38.0682980  82.7120220  13.5802020  42.8961960
  83.0195200  13.0248910  42.1797460  81.7820920  13.7146480  42.7134950
  88.2635280  29.2969310  45.1869420  88.2762440  28.8931600  44.3191680
  87.7110500  30.0716600  45.0830850  89.5580700  26.0185530  40.2759590
  89.4477030  25.0759860  40.4009010  89.5548950  26.3801170  41.1622350
  87.6620720  24.1999150  46.5152030  88.0789510  23.9859260  45.6805490
  88.3860540  24.4571940  47.0860650  85.1000980  21.6450850  39.6322080
  84.1730260  21.5788230  39.8610550  85.2525800  22.5830980  39.5177320
  85.0870060  17.9167850  36.6289240  84.1473730  18.0781810  36.7141700
  85.4053320  18.6353530  36.0825230  89.1298270  23.2071150  40.1357330
  88.5110690  22.8690700  39.4883630  89.1122720  22.5630910  40.8436520
  88.5724830  19.3855690  47.5523140  88.1596010  20.2109400  47.8063130
  87.8400780  18.8000730  47.3599500  80.7057620  22.1715590  42.4141810
  80.3014620  21.4592840  41.9187710  80.7920740  21.8268830  43.3029850
  81.1739320  25.8583150  44.5781020  80.8767610  25.2528620  43.8988800
  82.1239140  25.8960460  44.4670380  79.4186240  18.9458800  46.1940850
  79.9700830  19.0554140  45.4194100  79.9329750  19.3196400  46.9096080
  89.2624930  29.4315020  48.2404120  88.7855490  30.2387210  48.0476730
  88.5786720  28.7793350  48.3930330  80.2657750  25.5964840  51.2288820
  79.3686280  25.8204810  51.4762220  80.2910620  25.7199780  50.2800220
  87.3062970  22.4457960  37.1430080  87.7456250  21.6080390  36.9967900
  88.0191390  23.0787360  37.2294220  79.0928970  22.4678160  49.8046190
  78.9536740  23.3400960  50.1733590  78.2110330  22.1250970  49.6594130
  85.4158350  27.3854030  41.1111320  85.8554260  28.1278360  40.6966710
  85.3545240  27.6280600  42.0350280  80.8909320  28.4099860  52.0131340
  80.8624750  28.8142810  51.1459770  80.7274290  27.4810220  51.8502940
  77.4062250  21.0660570  39.9148460  77.2859850  21.7922660  39.3029730
  77.0963140  20.2963480  39.4376370  75.0447620  24.2375710  45.7217100
  75.1228040  24.3724480  44.7772820  75.6589300  23.5291600  45.9145220
  76.2895250  25.9375900  42.1323280  75.8823330  26.0790490  41.2776880
  77.1808260  25.6536060  41.9294490  86.1074130  30.0867810  49.0390330
  86.6218800  29.9975820  49.8412760  85.2643210  30.4327510  49.3318240
  88.0828530  30.3723150  38.4674330  87.9229670  30.0826090  39.3656160
  87.9175240  29.5963280  37.9319560  80.5616910  30.1521680  40.2445950
  80.3859390  29.2357220  40.0313750  79.7072650  30.5108970  40.4843750
  87.7854660  27.8810710  37.0272330  87.0919820  27.8788000  36.3674610
  88.5277520  27.4570030  36.5966500  87.3504590  29.5073420  41.1020820
  87.8061540  28.7262800  41.4159440  87.6897110  30.2180240  41.6462000
  75.1007140  25.2789880  48.2611560  75.2638180  24.8095240  47.4430930
  75.5659590  24.7713440  48.9260400  79.8725910  14.4095640  43.2972130
  79.4294060  15.1905180  42.9656650  80.4310900  14.7325530  44.0043070
  84.1595720  17.2764160  48.9007450  83.6975090  17.4847180  49.7127390
  83.7573830  16.4623510  48.5978120  89.1600230  18.4973110  50.0304110
  88.3093820  18.1978860  50.3513180  89.0002020  18.7415120  49.1187930
  86.2549940  19.9974860  52.1302900  86.5803350  19.1638610  51.7905130
  87.0430270  20.5203380  52.2781230  82.9884730  14.0306340  38.1777960
  82.3638910  14.0266210  38.9031270  82.9014850  13.1637300  37.7813930
  81.9101810  14.9542970  45.1561730  82.2074140  15.8605800  45.0753750
  82.4587370  14.4661750  44.5421300  79.6640130  19.5329210  41.0253380
  79.4381050  19.3166380  41.9300000  78.8832660  19.9657670  40.6799350
  86.8937890  19.5392580  39.6244030  86.2946780  20.2628380  39.4407650
  87.4417500  19.4769360  38.8420480  82.1039340  20.4314790  51.6913650
  82.0082940  19.4909520  51.5414050  82.9471320  20.6529860  51.2961720
  85.5002760  18.1756120  41.6547310  85.8932330  18.4928320  40.8416000
  85.8619610  17.2968000  41.7691830  77.2349880  16.8428460  49.8447430
  76.8413270  17.6903670  50.0520210  76.5468280  16.2054830  50.0356070
  83.8094930  16.9263430  52.9144170  83.1193250  16.7335630  53.5490260
  84.5527230  17.2098070  53.4468470  74.5366930  14.7656920  43.8777510
  74.2479980  15.3359780  44.5902490  75.2812690  14.2861370  44.2408740
  74.7237160  18.7077040  35.0880230  74.6411830  19.6507800  35.2295220
  74.3720220  18.5651950  34.2092580  86.0857900  20.7661870  45.7498090
  85.3539020  21.2748680  46.0988190  85.6882240  19.9491850  45.4486870
  82.5235290  17.4416070  44.1550580  82.5271350  17.0006020  43.3055120
  83.4186410  17.7633400  44.2622400  78.3737670  17.3242560  43.1144790
  78.0337720  17.8017790  43.8711840  77.6114990  16.8707680  42.7545890
  82.5855440  18.4428150  37.1457340  82.7068260  18.4014630  38.0943160
  82.2003950  19.3052300  36.9904070  86.5483810  16.2195550  45.1621030
  86.5656550  16.6704200  46.0062880  86.2999390  15.3201190  45.3754470
  81.5976940  20.7529290  36.5440640  81.0293840  20.3047540  35.9176550
  82.3065940  21.1122070  36.0105790  89.9754560  13.6327730  51.0007410
  90.3000330  12.9017390  51.5265390  90.0111070  13.3141370  50.0988400
  76.6746120  24.6541310  50.4207370  76.2900910  24.0134980  51.0190330
  76.9858310  25.3577430  50.9902100  82.8243260  21.5017850  45.9015990
  83.1913390  21.0276420  46.6477330  82.6348320  22.3759420  46.2424330
  75.6883750  16.2461540  42.0309460  75.4030670  15.8817210  42.8688080
  75.6262610  15.5142000  41.4172600  80.6142630  20.5426490  48.2200200
  80.3099700  21.4218470  48.4450560  81.5689090  20.6026280  48.2557640
  79.1424420  24.7487480  38.8167050  78.3686680  24.2085100  38.6565770
  79.8719050  24.2294090  38.4784810  89.9012400  23.7452840  44.6093440
  90.6211520  24.2408130  44.2189550  89.6994220  23.0670730  43.9647310
  85.3622340  15.1390800  38.7522830  84.5486950  14.6403970  38.6768140
  85.1684290  15.9789050  38.3359180  85.2831200  23.8161900  50.4962440
  85.2168510  22.8957570  50.2420030  84.6536340  23.9137340  51.2107080
  88.0770730  19.5110450  37.0484990  88.9650350  19.8227680  36.8736330
  88.0475820  18.6382700  36.6565570  79.1861820  24.4167860  42.4545860
  79.7040490  23.6136120  42.4002750  78.7345840  24.3547000  43.2962690
  84.0731320  25.6834140  37.7273160  84.4147020  26.4276370  37.2316480
  83.2444030  25.9965260  38.0897990  76.6706360  21.3829230  49.3671560
  76.3121300  22.0483080  49.9544900  76.3760920  20.5512780  49.7384180
  79.8719480  21.8413470  52.2511110  79.5719620  21.9870650  51.3538930
  80.6430720  21.2818760  52.1584500  85.2147930  26.6382470  50.2466240
  85.2292470  25.7063430  50.0285150  84.5073030  26.7242230  50.8856010
  86.9558730  25.0049980  43.0918670  87.3082550  24.4078110  42.4320040
  86.0721060  24.6794210  43.2626920  83.0422010  25.7647670  40.4989080
  83.7293140  26.3116880  40.8796670  82.2554430  26.3088400  40.5338690
  75.1814410  21.3820490  35.9906160  76.0509260  21.6645290  36.2742080
  74.6904730  22.1956360  35.8754970  82.3449220  22.7693700  40.1114440
  82.8012000  23.5798950  40.3374630  81.9937430  22.4516840  40.9432930
  84.6481830  28.2800040  47.3406740  85.2924050  28.4859420  48.0180160
  85.0111270  27.5188440  46.8877590  78.2461000  13.1131350  40.5836960
  78.1175630  13.1049250  41.5321880  77.4223020  13.4514440  40.2327970
  85.9213910  26.2832390  46.0584190  86.5636140  25.5825550  46.1716360
  86.4463260  27.0630830  45.8781080  89.7669630  26.5681010  35.7823330
  89.5407210  25.8511450  36.3747970  89.3765830  26.3193450  34.9445080
  87.6951530  27.0827290  49.2620250  88.0307770  27.6693980  49.9398170
  86.7751870  26.9520000  49.4918040  75.5485660  30.5947870  36.5567790
  75.9083300  31.1937210  35.9025060  75.4078000  31.1407760  37.3302820
  75.2454930  14.8722470  50.0443660  74.5313450  15.0719390  50.6496270
  75.6649970  14.0962040  50.4158460  89.3485880  24.4852950  37.4437490
  89.0607580  24.9465640  38.2315370  90.1438050  24.0250720  37.7121710
  75.5327520  28.8602730  51.0310190  75.6418640  27.9197470  50.8905580
  74.8808080  29.1257480  50.3823920  83.5240110  27.1318620  52.4308310
  83.2036980  26.4127860  52.9754000  82.8498470  27.8073690  52.5044370
  81.5654280  27.9779070  37.3741460  81.5564380  28.7108760  36.7585970
  80.6452640  27.7310650  37.4668420  77.1660920  23.1993960  38.1188220
  76.5588870  23.9392860  38.1283520  77.6410270  23.2893320  37.2926420
  86.7393710  17.3644780  47.7945110  87.1074530  16.5439990  48.1224680
  85.8791910  17.4246670  48.2100760  90.1055740  16.3201720  38.6032670
  89.4768900  16.4247390  37.8890900  89.6107660  16.5398500  39.3926550
  84.5513880  28.0407310  36.0366650  84.6525860  27.8371300  35.1068630
  83.6515620  27.7865590  36.2414430  82.0739770  18.5987670  40.0190550
  81.3655920  19.0674010  40.4604160  82.3584250  17.9409680  40.6535740
  83.6995700  20.0184370  48.0183080  84.1980950  20.4930190  48.6834930
  83.8418650  19.0947890  48.2253110  86.1055200  15.3238330  41.4586340
  85.9822980  15.3424460  40.5095850  87.0539760  15.3717270  41.5784740
  83.1931990  30.5593630  40.7314320  83.4473490  30.5215020  39.8093690
  82.2444470  30.4326960  40.7242570  80.2774790  16.9072750  37.3941260
  81.1265320  17.3442900  37.3281450  79.9106060  17.2193010  38.2213320
  89.1984570  21.4785510  42.3072830  88.2574710  21.4935740  42.4820520
  89.5128640  20.6921470  42.7533130  79.1766210  23.1605110  35.8676790
  79.9429480  23.0486470  36.4302220  79.2540900  22.4643080  35.2153560
  77.8712970  20.5930180  36.5509680  77.9516560  19.6457690  36.6627080
  78.7632720  20.9237060  36.6570340  78.6727680  30.7425570  43.6544220
  79.4090160  30.1941030  43.9252790  79.0568600  31.6081580  43.5150210
  75.5573160  26.8099140  39.5285730  74.6312940  27.0520280  39.5191140
  76.0229590  27.6373400  39.4070480  77.6785960  29.9271640  52.8429800
  78.4798690  30.2483690  53.2565200  77.1637780  29.5667220  53.5649710
  81.7829990  29.9155880  35.4769790  82.5758600  30.2044710  35.0251580
  81.2634340  29.4848050  34.7982270  86.5150590  26.0351510  52.7905210
  85.9088750  26.0583110  52.0500960  86.2104700  25.3034550  53.3272460
  87.9450960  29.7631800  51.4014620  88.8972710  29.6789820  51.3514860
  87.7979180  30.4273510  52.0748410  75.3983770  22.4145100  51.7865850
  75.9022790  21.8352380  52.3582080  74.6591190  22.6985330  52.3242220
  82.3007390  25.1359290  35.3412140  82.1958030  24.5211640  36.0673520
  82.1331610  24.6125180  34.5575150  82.4521710  23.8216090  51.3201370
  81.6867380  24.3901090  51.2356040  82.6337670  23.5292300  50.4269600
  85.5410120  24.1979320  35.9454130  84.9920220  24.6448620  36.5896870
  86.1629380  23.6928570  36.4691800  89.5945060  25.5521420  51.8776390
  90.3354530  25.8897180  51.3743850  88.8317740  25.7213480  51.3246160
  77.4306850  20.5574690  52.6815920  77.4712190  20.2588560  53.5901150
  78.2852350  20.9582300  52.5223440  81.2085240  23.1570240  37.8419430
  81.6301660  22.9910110  38.6850820  81.3336080  22.3470470  37.3474570
  79.3712660  19.1366790  50.6490410  78.8409120  18.6457740  50.0213750
  80.0400730  19.5650990  50.1148340  83.7212880  22.1807850  35.0896530
  84.2418540  21.4656870  34.7237680  84.3681280  22.8193720  35.3897040
  88.2690720  23.6036250  50.4131600  88.6831740  23.7581330  51.2622020
  87.3341720  23.7291470  50.5757380  88.7412890  20.9432410  52.4170750
  89.3233660  20.1884730  52.3291230  88.9174660  21.4739850  51.6402230
  79.8584960  16.1029160  50.7287700  79.7641830  15.4849910  50.0038570
  79.2782350  16.8295450  50.5017610  82.6246400  14.6602400  47.7615090
  82.1763700  14.6826660  46.9160640  81.9911600  14.2621420  48.3585390
  83.0305950  23.5556730  48.3827530  83.4494060  24.3989460  48.2103770
  82.1114580  23.6928770  48.1534310  85.3669850  21.2872910  49.7665370
  85.4866060  20.6914050  50.5060210  86.2263850  21.3242600  49.3466670
  87.7057750  21.8410100  48.3427880  87.1792970  22.3652720  47.7393020
  88.0489090  22.4737490  48.9737610  80.1044140  19.2303470  34.7877590
  79.9033200  18.3670830  35.1490930  79.9336190  19.1436830  33.8499190
  80.8813370  29.8609740  49.4985260  80.3434460  30.5855800  49.1793960
  81.1347330  29.3840080  48.7082600  82.1338620  17.8294260  51.0241190
  82.7238310  17.5210110  51.7119010  81.3158860  17.3574010  51.1801090
  86.9532050  17.4460070  51.2574210  86.2647570  16.7841610  51.1924200
  87.6738070  16.9998340  51.7022670  87.5832450  14.0411700  37.3164470
  87.8634740  13.1979600  37.6723890  86.8098180  14.2734810  37.8303220
  78.9026940  16.3304090  34.7755470  79.2052840  16.3371520  33.8674620
  79.6421530  15.9801950  35.2723130  83.7375580  31.0960950  49.7571910
  83.6634280  31.9996090  50.0644280  82.8354420  30.7772850  49.7293980
  82.1211870  15.2738710  35.7611670  81.7733870  14.5962700  35.1814120
  82.3224640  14.8128220  36.5755060  84.2860910  30.2619460  37.3798270
  85.1811700  30.6004430  37.4017030  84.3178540  29.5398870  36.7522550
  77.9257070  25.6346510  35.6085270  78.3631940  26.1776180  36.2642850
  78.4104800  24.8093460  35.6181610  75.1402870  28.4235540  43.0605530
  75.4705880  27.5556600  42.8284170  75.5693870  28.6294060  43.8910490
  79.7364790  26.7544550  40.7207500  79.4360330  26.6309520  41.6211410
  79.6302280  25.8953140  40.3123230  75.6293080  29.2906130  45.7987160
  75.1924070  29.4706930  46.6311310  76.1970760  30.0480750  45.6568880
  75.4617510  21.8026360  42.1576040  74.8066350  21.5338000  41.5135740
  76.2995460  21.6930840  41.7078020  89.9506900  25.5175110  48.1840630
  89.1366740  25.9472270  48.4466420  90.3581100  26.1293520  47.5709680
  88.4107950  16.5967650  36.3794530  88.8292830  16.4098630  35.5391190
  88.1044010  15.7446700  36.6897460  76.4993440  22.1878930  46.6979380
  76.8666480  22.1006330  47.5775400  75.9304260  21.4245480  46.5986240
  76.0509440  19.0988020  50.6037800  75.1565490  19.0654780  50.9431510
  76.5906990  19.2974810  51.3689050  89.7385370  15.8819740  52.4889550
  90.6155550  15.8903140  52.8723550  89.7506210  15.1450580  51.8781900
  74.6755590  19.0125290  38.1001370  73.7719670  19.2755490  37.9253030
  75.1596210  19.2836460  37.3201330  77.2182800  18.0690830  36.0095750
  77.9274500  17.6474050  35.5243030  76.5022740  18.1366060  35.3779100
  76.8656960  14.1230160  35.0498400  77.5885090  14.6639100  35.3679620
  77.1381480  13.8493580  34.1739940  76.5549150  13.3736350  44.9521020
  77.2025340  12.8233730  44.5116180  76.9750990  13.6279500  45.7736830
  90.0082950  30.2693710  41.7108900  90.6042020  29.9478280  41.0343320
  90.2661100  29.7965530  42.5022170  76.3081150  13.5292020  47.6946340
  75.9595970  13.9855840  48.4604520  75.9768850  12.6349150  47.7768770
  77.9145520  26.7011620  51.8599530  77.8715150  26.3304530  52.7413990
  78.0456530  27.6389190  52.0001350  81.6151550  28.2571210  47.4609250
  81.3742910  28.5245770  46.5739770  82.5554190  28.4276940  47.5160110
  83.8205970  14.7203900  51.2165760  83.7594860  15.3125730  51.9661170
  84.7606350  14.6129860  51.0716020  86.4580530  14.3773960  50.8558050
  87.0720940  14.6953250  50.1939130  87.0030090  13.8922550  51.4753910
  76.9801790  13.0568220  50.9697110  77.5284780  12.8756270  50.2063220
  77.0457100  12.2662330  51.5053420  77.7533550  29.6473870  48.9797310
  77.1593870  29.5158570  49.7187350  77.7457390  28.8112010  48.5139410
  87.1988570  12.9406100  47.1827340  86.3248410  13.2741210  46.9800270
  87.0899320  12.4679280  48.0079210  88.1060550  15.1476970  48.5669060
  87.7773910  14.3328730  48.1870790  89.0542850  15.1046780  48.4434750
  90.5595160  30.9189010  45.5406630  90.0998130  31.6704820  45.1664650
  89.9307620  30.1995480  45.4821430  77.3845780  27.0132250  47.9305350
  76.6579840  26.3937540  47.8631300  77.4454930  27.4072860  47.0603430
  80.9890880  29.2277250  44.7154760  81.5055900  28.6164610  44.1903020
  81.6388260  29.7306030  45.2065770  83.7286380  30.1185740  45.5423740
  84.0164190  29.8640040  44.6656750  84.2409600  29.5663100  46.1329310
  84.9463390  13.8575940  46.1220250  84.1635180  14.3321440  46.4017010
  84.6526320  12.9530770  46.0133430  89.4984460  14.5599040  44.1669340
  89.9392550  14.5044140  43.3190940  89.2292050  15.4757050  44.2379520
  75.6675780  30.3306640  41.1402110  75.4997820  29.6977320  41.8384000
  74.8010290  30.5366040  40.7896300  76.2903800  14.1623420  38.6433970
  77.0483160  14.2752300  38.0698000  75.8280970  14.9992620  38.5977400
  82.8317610  16.2762690  41.6336280  82.0192120  15.9019580  41.2932160
  83.3359250  15.5207770  41.9357470  87.3342590  12.9405140  42.8719350
  87.9371960  13.5125350  43.3467870  86.5935580  13.5044580  42.6493250
  90.4777190  13.3426700  38.1459630  90.6727820  14.2410150  38.4127060
  89.6907060  13.1113780  38.6392580  77.2738480  29.0239870  38.5852250
  76.7486100  29.4047900  37.8814210  77.1983060  29.6490640  39.3061960
  78.6628950  14.6887470  37.1835940  79.1921710  13.9017270  37.0543890
  79.2957270  15.3678660  37.4171470  80.8566790  14.4262610  40.2381330
  80.2269530  13.7249920  40.4051460  80.3171930  15.1866740  40.0214490
  83.7958740  31.0401840  52.9091940  84.7226050  30.8046110  52.9527900
  83.7809170  31.8673840  52.4277970  80.9822350  13.7046590  52.6733820
  80.7006620  14.2080190  51.9094640  81.3642050  12.9068340  52.3075950
  79.8731450  30.9722250  37.4601500  80.6050270  30.6881530  36.9125390
  80.1325120  30.7335530  38.3500880  79.0346240  27.0886980  37.4647830
  78.4055120  27.5572080  38.0133660  79.1494070  26.2436200  37.8994020
  87.5837810  13.1200170  53.2514290  87.4703260  13.4394780  54.1465810
  88.4007550  13.5212680  52.9551570  86.4895960  21.1392640  23.6149030
  86.4090010  20.2247250  23.3440740  86.0760380  21.6359710  22.9088740
  84.6214000  22.9171660  25.4958300  83.8456100  22.4372100  25.7856870
  85.2726930  22.2377310  25.3214460  78.6379830  23.2291470  26.3734060
  77.8064710  22.9740180  26.7730570  79.2460810  23.3002240  27.1091980
  88.6421430  27.3231850  24.2757430  88.1802960  26.5519090  24.6044600
  89.4546980  27.3497920  24.7809880  78.6181090  27.2631560  26.5692080
  78.9209130  26.3729300  26.3902300  79.3624680  27.8201780  26.3414330
  77.0471780  18.1893360  20.1576450  76.1588480  18.5309330  20.0556330
  77.3312970  17.9893680  19.2657280  75.0104790  20.7899010  26.0416150
  75.5820900  20.0221210  26.0419790  75.0106330  21.0887770  25.1322760
  84.8684740  29.6089860  23.8961420  84.2496180  30.0647360  23.3255860
  85.7236520  29.7641320  23.4951120  84.0622990  25.5928850  25.5028460
  83.9931270  24.6518790  25.3417590  84.8242850  25.6830260  26.0751030
  76.2529660  16.1983370  27.8285080  76.0732500  15.3009120  28.1087840
  75.8509740  16.7455240  28.5032030  85.0928160  18.3999230  25.7297390
  85.4692980  17.5271110  25.6171060  84.9947670  18.7357930  24.8387830
  79.2233170  16.7724860  21.1914830  79.3299920  17.6728590  21.4983590
  78.3125530  16.7242830  20.9009480  88.8752280  15.8949670  22.6625730
  89.6961900  15.4046240  22.7051210  88.9086360  16.4847330  23.4157570
  76.8716330  18.6943870  26.4367420  77.5526440  18.9582240  27.0554820
  76.5564380  17.8544740  26.7705430  81.0640900  19.7411230  25.5240010
  81.5719120  20.2392200  26.1645030  81.5954140  18.9646430  25.3479370
  79.3477000  14.3809790  29.7903430  79.3495440  14.8982180  28.9849330
  78.5181310  13.9039970  29.7673360  85.7348090  24.4929100  21.2893330
  85.1165360  24.9578550  20.7256050  86.2471340  25.1856580  21.7062840
  80.5979850  24.0204970  27.9676930  80.2649230  24.6473890  28.6098000
  80.7746530  24.5466850  27.1878600  89.1113760  17.8350050  25.4353270
  88.4069330  18.1234940  26.0156380  89.4725920  18.6450160  25.0752830
  79.0292330  16.0919750  27.7973880  79.3709140  16.9361800  27.5027750
  78.0908140  16.2403490  27.9139220  79.8098950  25.9885770  29.7826110
  80.4272950  26.6636850  29.5010560  78.9492070  26.3973750  29.6913610
  75.1031290  25.1785630  18.6632960  74.7259270  25.6672730  17.9317860
  75.3604360  25.8510910  19.2939490  82.7120220  13.5802020  24.1218470
  83.0195200  13.0248910  23.4053970  81.7820920  13.7146480  23.9391460
  88.2635280  29.2969310  26.4125930  88.2762440  28.8931600  25.5448190
  87.7110500  30.0716600  26.3087360  89.5580700  26.0185530  21.5016100
  89.4477030  25.0759860  21.6265520  89.5548950  26.3801170  22.3878860
  87.6620720  24.1999150  27.7408540  88.0789510  23.9859260  26.9062000
  88.3860540  24.4571940  28.3117160  85.1000980  21.6450850  20.8578590
  84.1730260  21.5788230  21.0867060  85.2525800  22.5830980  20.7433830
  85.0870060  17.9167850  17.8545750  84.1473730  18.0781810  17.9398210
  85.4053320  18.6353530  17.3081740  89.1298270  23.2071150  21.3613840
  88.5110690  22.8690700  20.7140140  89.1122720  22.5630910  22.0693030
  88.5724830  19.3855690  28.7779650  88.1596010  20.2109400  29.0319640
  87.8400780  18.8000730  28.5856010  80.7057620  22.1715590  23.6398320
  80.3014620  21.4592840  23.1444220  80.7920740  21.8268830  24.5286360
  81.1739320  25.8583150  25.8037530  80.8767610  25.2528620  25.1245310
  82.1239140  25.8960460  25.6926890  79.4186240  18.9458800  27.4197360
  79.9700830  19.0554140  26.6450610  79.9329750  19.3196400  28.1352590
  89.2624930  29.4315020  29.4660630  88.7855490  30.2387210  29.2733240
  88.5786720  28.7793350  29.6186840  80.2657750  25.5964840  32.4545330
  79.3686280  25.8204810  32.7018730  80.2910620  25.7199780  31.5056730
  87.3062970  22.4457960  18.3686590  87.7456250  21.6080390  18.2224410
  88.0191390  23.0787360  18.4550730  79.0928970  22.4678160  31.0302700
  78.9536740  23.3400960  31.3990100  78.2110330  22.1250970  30.8850640
  85.4158350  27.3854030  22.3367830  85.8554260  28.1278360  21.9223220
  85.3545240  27.6280600  23.2606790  80.8909320  28.4099860  33.2387850
  80.8624750  28.8142810  32.3716280  80.7274290  27.4810220  33.0759450
  77.4062250  21.0660570  21.1404970  77.2859850  21.7922660  20.5286240
  77.0963140  20.2963480  20.6632880  75.0447620  24.2375710  26.9473610
  75.1228040  24.3724480  26.0029330  75.6589300  23.5291600  27.1401730
  76.2895250  25.9375900  23.3579790  75.8823330  26.0790490  22.5033390
  77.1808260  25.6536060  23.1551000  86.1074130  30.0867810  30.2646840
  86.6218800  29.9975820  31.0669270  85.2643210  30.4327510  30.5574750
  88.0828530  30.3723150  19.6930840  87.9229670  30.0826090  20.5912670
  87.9175240  29.5963280  19.1576070  80.5616910  30.1521680  21.4702460
  80.3859390  29.2357220  21.2570260  79.7072650  30.5108970  21.7100260
  87.7854660  27.8810710  18.2528840  87.0919820  27.8788000  17.5931120
  88.5277520  27.4570030  17.8223010  87.3504590  29.5073420  22.3277330
  87.8061540  28.7262800  22.6415950  87.6897110  30.2180240  22.8718510
  75.1007140  25.2789880  29.4868070  75.2638180  24.8095240  28.6687440
  75.5659590  24.7713440  30.1516910  79.8725910  14.4095640  24.5228640
  79.4294060  15.1905180  24.1913160  80.4310900  14.7325530  25.2299580
  84.1595720  17.2764160  30.1263960  83.6975090  17.4847180  30.9383900
  83.7573830  16.4623510  29.8234630  89.1600230  18.4973110  31.2560620
  88.3093820  18.1978860  31.5769690  89.0002020  18.7415120  30.3444440
  86.2549940  19.9974860  33.3559410  86.5803350  19.1638610  33.0161640
  87.0430270  20.5203380  33.5037740  82.9884730  14.0306340  19.4034470
  82.3638910  14.0266210  20.1287780  82.9014850  13.1637300  19.0070440
  81.9101810  14.9542970  26.3818240  82.2074140  15.8605800  26.3010260
  82.4587370  14.4661750  25.7677810  79.6640130  19.5329210  22.2509890
  79.4381050  19.3166380  23.1556510  78.8832660  19.9657670  21.9055860
  86.8937890  19.5392580  20.8500540  86.2946780  20.2628380  20.6664160
  87.4417500  19.4769360  20.0676990  82.1039340  20.4314790  32.9170160
  82.0082940  19.4909520  32.7670560  82.9471320  20.6529860  32.5218230
  85.5002760  18.1756120  22.8803820  85.8932330  18.4928320  22.0672510
  85.8619610  17.2968000  22.9948340  77.2349880  16.8428460  31.0703940
  76.8413270  17.6903670  31.2776720  76.5468280  16.2054830  31.2612580
  83.8094930  16.9263430  34.1400680  83.1193250  16.7335630  34.7746770
  84.5527230  17.2098070  34.6724980  74.5366930  14.7656920  25.1034020
  74.2479980  15.3359780  25.8159000  75.2812690  14.2861370  25.4665250
  74.7237160  18.7077040  16.3136740  74.6411830  19.6507800  16.4551730
  74.3720220  18.5651950  15.4349090  86.0857900  20.7661870  26.9754600
  85.3539020  21.2748680  27.3244700  85.6882240  19.9491850  26.6743380
  82.5235290  17.4416070  25.3807090  82.5271350  17.0006020  24.5311630
  83.4186410  17.7633400  25.4878910  78.3737670  17.3242560  24.3401300
  78.0337720  17.8017790  25.0968350  77.6114990  16.8707680  23.9802400
  82.5855440  18.4428150  18.3713850  82.7068260  18.4014630  19.3199670
  82.2003950  19.3052300  18.2160580  86.5483810  16.2195550  26.3877540
  86.5656550  16.6704200  27.2319390  86.2999390  15.3201190  26.6010980
  81.5976940  20.7529290  17.7697150  81.0293840  20.3047540  17.1433060
  82.3065940  21.1122070  17.2362300  89.9754560  13.6327730  32.2263920
  90.3000330  12.9017390  32.7521900  90.0111070  13.3141370  31.3244910
  76.6746120  24.6541310  31.6463880  76.2900910  24.0134980  32.2446840
  76.9858310  25.3577430  32.2158610  82.8243260  21.5017850  27.1272500
  83.1913390  21.0276420  27.8733840  82.6348320  22.3759420  27.4680840
  75.6883750  16.2461540  23.2565970  75.4030670  15.8817210  24.0944590
  75.6262610  15.5142000  22.6429110  80.6142630  20.5426490  29.4456710
  80.3099700  21.4218470  29.6707070  81.5689090  20.6026280  29.4814150
  79.1424420  24.7487480  20.0423560  78.3686680  24.2085100  19.8822280
  79.8719050  24.2294090  19.7041320  89.9012400  23.7452840  25.8349950
  90.6211520  24.2408130  25.4446060  89.6994220  23.0670730  25.1903820
  85.3622340  15.1390800  19.9779340  84.5486950  14.6403970  19.9024650
  85.1684290  15.9789050  19.5615690  85.2831200  23.8161900  31.7218950
  85.2168510  22.8957570  31.4676540  84.6536340  23.9137340  32.4363590
  88.0770730  19.5110450  18.2741500  88.9650350  19.8227680  18.0992840
  88.0475820  18.6382700  17.8822080  79.1861820  24.4167860  23.6802370
  79.7040490  23.6136120  23.6259260  78.7345840  24.3547000  24.5219200
  84.0731320  25.6834140  18.9529670  84.4147020  26.4276370  18.4572990
  83.2444030  25.9965260  19.3154500  76.6706360  21.3829230  30.5928070
  76.3121300  22.0483080  31.1801410  76.3760920  20.5512780  30.9640690
  79.8719480  21.8413470  33.4767620  79.5719620  21.9870650  32.5795440
  80.6430720  21.2818760  33.3841010  85.2147930  26.6382470  31.4722750
  85.2292470  25.7063430  31.2541660  84.5073030  26.7242230  32.1112520
  86.9558730  25.0049980  24.3175180  87.3082550  24.4078110  23.6576550
  86.0721060  24.6794210  24.4883430  83.0422010  25.7647670  21.7245590
  83.7293140  26.3116880  22.1053180  82.2554430  26.3088400  21.7595200
  75.1814410  21.3820490  17.2162670  76.0509260  21.6645290  17.4998590
  74.6904730  22.1956360  17.1011480  82.3449220  22.7693700  21.3370950
  82.8012000  23.5798950  21.5631140  81.9937430  22.4516840  22.1689440
  84.6481830  28.2800040  28.5663250  85.2924050  28.4859420  29.2436670
  85.0111270  27.5188440  28.1134100  78.2461000  13.1131350  21.8093470
  78.1175630  13.1049250  22.7578390  77.4223020  13.4514440  21.4584480
  85.9213910  26.2832390  27.2840700  86.5636140  25.5825550  27.3972870
  86.4463260  27.0630830  27.1037590  89.7669630  26.5681010  17.0079840
  89.5407210  25.8511450  17.6004480  89.3765830  26.3193450  16.1701590
  87.6951530  27.0827290  30.4876760  88.0307770  27.6693980  31.1654680
  86.7751870  26.9520000  30.7174550  75.5485660  30.5947870  17.7824300
  75.9083300  31.1937210  17.1281570  75.4078000  31.1407760  18.5559330
  75.2454930  14.8722470  31.2700170  74.5313450  15.0719390  31.8752780
  75.6649970  14.0962040  31.6414970  89.3485880  24.4852950  18.6694000
  89.0607580  24.9465640  19.4571880  90.1438050  24.0250720  18.9378220
  75.5327520  28.8602730  32.2566700  75.6418640  27.9197470  32.1162090
  74.8808080  29.1257480  31.6080430  83.5240110  27.1318620  33.6564820
  83.2036980  26.4127860  34.2010510  82.8498470  27.8073690  33.7300880
  81.5654280  27.9779070  18.5997970  81.5564380  28.7108760  17.9842480
  80.6452640  27.7310650  18.6924930  77.1660920  23.1993960  19.3444730
  76.5588870  23.9392860  19.3540030  77.6410270  23.2893320  18.5182930
  86.7393710  17.3644780  29.0201620  87.1074530  16.5439990  29.3481190
  85.8791910  17.4246670  29.4357270  90.1055740  16.3201720  19.8289180
  89.4768900  16.4247390  19.1147410  89.6107660  16.5398500  20.6183060
  84.5513880  28.0407310  17.2623160  84.6525860  27.8371300  16.3325140
  83.6515620  27.7865590  17.4670940  82.0739770  18.5987670  21.2447060
  81.3655920  19.0674010  21.6860670  82.3584250  17.9409680  21.8792250
  83.6995700  20.0184370  29.2439590  84.1980950  20.4930190  29.9091440
  83.8418650  19.0947890  29.4509620  86.1055200  15.3238330  22.6842850
  85.9822980  15.3424460  21.7352360  87.0539760  15.3717270  22.8041250
  83.1931990  30.5593630  21.9570830  83.4473490  30.5215020  21.0350200
  82.2444470  30.4326960  21.9499080  80.2774790  16.9072750  18.6197770
  81.1265320  17.3442900  18.5537960  79.9106060  17.2193010  19.4469830
  89.1984570  21.4785510  23.5329340  88.2574710  21.4935740  23.7077030
  89.5128640  20.6921470  23.9789640  79.1766210  23.1605110  17.0933300
  79.9429480  23.0486470  17.6558730  79.2540900  22.4643080  16.4410070
  77.8712970  20.5930180  17.7766190  77.9516560  19.6457690  17.8883590
  78.7632720  20.9237060  17.8826850  78.6727680  30.7425570  24.8800730
  79.4090160  30.1941030  25.1509300  79.0568600  31.6081580  24.7406720
  75.5573160  26.8099140  20.7542240  74.6312940  27.0520280  20.7447650
  76.0229590  27.6373400  20.6326990  77.6785960  29.9271640  34.0686310
  78.4798690  30.2483690  34.4821710  77.1637780  29.5667220  34.7906220
  81.7829990  29.9155880  16.7026300  82.5758600  30.2044710  16.2508090
  81.2634340  29.4848050  16.0238780  86.5150590  26.0351510  34.0161720
  85.9088750  26.0583110  33.2757470  86.2104700  25.3034550  34.5528970
  87.9450960  29.7631800  32.6271130  88.8972710  29.6789820  32.5771370
  87.7979180  30.4273510  33.3004920  75.3983770  22.4145100  33.0122360
  75.9022790  21.8352380  33.5838590  74.6591190  22.6985330  33.5498730
  82.3007390  25.1359290  16.5668650  82.1958030  24.5211640  17.2930030
  82.1331610  24.6125180  15.7831660  82.4521710  23.8216090  32.5457880
  81.6867380  24.3901090  32.4612550  82.6337670  23.5292300  31.6526110
  85.5410120  24.1979320  17.1710640  84.9920220  24.6448620  17.8153380
  86.1629380  23.6928570  17.6948310  89.5945060  25.5521420  33.1032900
  90.3354530  25.8897180  32.6000360  88.8317740  25.7213480  32.5502670
  77.4306850  20.5574690  33.9072430  77.4712190  20.2588560  34.8157660
  78.2852350  20.9582300  33.7479950  81.2085240  23.1570240  19.0675940
  81.6301660  22.9910110  19.9107330  81.3336080  22.3470470  18.5731080
  79.3712660  19.1366790  31.8746920  78.8409120  18.6457740  31.2470260
  80.0400730  19.5650990  31.3404850  83.7212880  22.1807850  16.3153040
  84.2418540  21.4656870  15.9494190  84.3681280  22.8193720  16.6153550
  88.2690720  23.6036250  31.6388110  88.6831740  23.7581330  32.4878530
  87.3341720  23.7291470  31.8013890  88.7412890  20.9432410  33.6427260
  89.3233660  20.1884730  33.5547740  88.9174660  21.4739850  32.8658740
  79.8584960  16.1029160  31.9544210  79.7641830  15.4849910  31.2295080
  79.2782350  16.8295450  31.7274120  82.6246400  14.6602400  28.9871600
  82.1763700  14.6826660  28.1417150  81.9911600  14.2621420  29.5841900
  83.0305950  23.5556730  29.6084040  83.4494060  24.3989460  29.4360280
  82.1114580  23.6928770  29.3790820  85.3669850  21.2872910  30.9921880
  85.4866060  20.6914050  31.7316720  86.2263850  21.3242600  30.5723180
  87.7057750  21.8410100  29.5684390  87.1792970  22.3652720  28.9649530
  88.0489090  22.4737490  30.1994120  80.1044140  19.2303470  16.0134100
  79.9033200  18.3670830  16.3747440  79.9336190  19.1436830  15.0755700
  80.8813370  29.8609740  30.7241770  80.3434460  30.5855800  30.4050470
  81.1347330  29.3840080  29.9339110  82.1338620  17.8294260  32.2497700
  82.7238310  17.5210110  32.9375520  81.3158860  17.3574010  32.4057600
  86.9532050  17.4460070  32.4830720  86.2647570  16.7841610  32.4180710
  87.6738070  16.9998340  32.9279180  87.5832450  14.0411700  18.5420980
  87.8634740  13.1979600  18.8980400  86.8098180  14.2734810  19.0559730
  78.9026940  16.3304090  16.0011980  79.2052840  16.3371520  15.0931130
  79.6421530  15.9801950  16.4979640  83.7375580  31.0960950  30.9828420
  83.6634280  31.9996090  31.2900790  82.8354420  30.7772850  30.9550490
  82.1211870  15.2738710  16.9868180  81.7733870  14.5962700  16.4070630
  82.3224640  14.8128220  17.8011570  84.2860910  30.2619460  18.6054780
  85.1811700  30.6004430  18.6273540  84.3178540  29.5398870  17.9779060
  77.9257070  25.6346510  16.8341780  78.3631940  26.1776180  17.4899360
  78.4104800  24.8093460  16.8438120  75.1402870  28.4235540  24.2862040
  75.4705880  27.5556600  24.0540680  75.5693870  28.6294060  25.1167000
  79.7364790  26.7544550  21.9464010  79.4360330  26.6309520  22.8467920
  79.6302280  25.8953140  21.5379740  75.6293080  29.2906130  27.0243670
  75.1924070  29.4706930  27.8567820  76.1970760  30.0480750  26.8825390
  75.4617510  21.8026360  23.3832550  74.8066350  21.5338000  22.7392250
  76.2995460  21.6930840  22.9334530  89.9506900  25.5175110  29.4097140
  89.1366740  25.9472270  29.6722930  90.3581100  26.1293520  28.7966190
  88.4107950  16.5967650  17.6051040  88.8292830  16.4098630  16.7647700
  88.1044010  15.7446700  17.9153970  76.4993440  22.1878930  27.9235890
  76.8666480  22.1006330  28.8031910  75.9304260  21.4245480  27.8242750
  76.0509440  19.0988020  31.8294310  75.1565490  19.0654780  32.1688020
  76.5906990  19.2974810  32.5945560  89.7385370  15.8819740  33.7146060
  90.6155550  15.8903140  34.0980060  89.7506210  15.1450580  33.1038410
  74.6755590  19.0125290  19.3257880  73.7719670  19.2755490  19.1509540
  75.1596210  19.2836460  18.5457840  77.2182800  18.0690830  17.2352260
  77.9274500  17.6474050  16.7499540  76.5022740  18.1366060  16.6035610
  76.8656960  14.1230160  16.2754910  77.5885090  14.6639100  16.5936130
  77.1381480  13.8493580  15.3996450  76.5549150  13.3736350  26.1777530
  77.2025340  12.8233730  25.7372690  76.9750990  13.6279500  26.9993340
  90.0082950  30.2693710  22.9365410  90.6042020  29.9478280  22.2599830
  90.2661100  29.7965530  23.7278680  76.3081150  13.5292020  28.9202850
  75.9595970  13.9855840  29.6861030  75.9768850  12.6349150  29.0025280
  77.9145520  26.7011620  33.0856040  77.8715150  26.3304530  33.9670500
  78.0456530  27.6389190  33.2257860  81.6151550  28.2571210  28.6865760
  81.3742910  28.5245770  27.7996280  82.5554190  28.4276940  28.7416620
  83.8205970  14.7203900  32.4422270  83.7594860  15.3125730  33.1917680
  84.7606350  14.6129860  32.2972530  86.4580530  14.3773960  32.0814560
  87.0720940  14.6953250  31.4195640  87.0030090  13.8922550  32.7010420
  76.9801790  13.0568220  32.1953620  77.5284780  12.8756270  31.4319730
  77.0457100  12.2662330  32.7309930  77.7533550  29.6473870  30.2053820
  77.1593870  29.5158570  30.9443860  77.7457390  28.8112010  29.7395920
  87.1988570  12.9406100  28.4083850  86.3248410  13.2741210  28.2056780
  87.0899320  12.4679280  29.2335720  88.1060550  15.1476970  29.7925570
  87.7773910  14.3328730  29.4127300  89.0542850  15.1046780  29.6691260
  90.5595160  30.9189010  26.7663140  90.0998130  31.6704820  26.3921160
  89.9307620  30.1995480  26.7077940  77.3845780  27.0132250  29.1561860
  76.6579840  26.3937540  29.0887810  77.4454930  27.4072860  28.2859940
  80.9890880  29.2277250  25.9411270  81.5055900  28.6164610  25.4159530
  81.6388260  29.7306030  26.4322280  83.7286380  30.1185740  26.7680250
  84.0164190  29.8640040  25.8913260  84.2409600  29.5663100  27.3585820
  84.9463390  13.8575940  27.3476760  84.1635180  14.3321440  27.6273520
  84.6526320  12.9530770  27.2389940  89.4984460  14.5599040  25.3925850
  89.9392550  14.5044140  24.5447450  89.2292050  15.4757050  25.4636030
  75.6675780  30.3306640  22.3658620  75.4997820  29.6977320  23.0640510
  74.8010290  30.5366040  22.0152810  76.2903800  14.1623420  19.8690480
  77.0483160  14.2752300  19.2954510  75.8280970  14.9992620  19.8233910
  82.8317610  16.2762690  22.8592790  82.0192120  15.9019580  22.5188670
  83.3359250  15.5207770  23.1613980  87.3342590  12.9405140  24.0975860
  87.9371960  13.5125350  24.5724380  86.5935580  13.5044580  23.8749760
  90.4777190  13.3426700  19.3716140  90.6727820  14.2410150  19.6383570
  89.6907060  13.1113780  19.8649090  77.2738480  29.0239870  19.8108760
  76.7486100  29.4047900  19.1070720  77.1983060  29.6490640  20.5318470
  78.6628950  14.6887470  18.4092450  79.1921710  13.9017270  18.2800400
  79.2957270  15.3678660  18.6427980  80.8566790  14.4262610  21.4637840
  80.2269530  13.7249920  21.6307970  80.3171930  15.1866740  21.2471000
  83.7958740  31.0401840  34.1348450  84.7226050  30.8046110  34.1784410
  83.7809170  31.8673840  33.6534480  80.9822350  13.7046590  33.8990330
  80.7006620  14.2080190  33.1351150  81.3642050  12.9068340  33.5332460
  79.8731450  30.9722250  18.6858010  80.6050270  30.6881530  18.1381900
  80.1325120  30.7335530  19.5757390  79.0346240  27.0886980  18.6904340
  78.4055120  27.5572080  19.2390170  79.1494070  26.2436200  19.1250530
  87.5837810  13.1200170  34.4770800  87.4703260  13.4394780  35.3722320
  88.4007550  13.5212680  34.1808080  86.4895960  21.1392640   4.8405540
  86.4090010  20.2247250   4.5697250  86.0760380  21.6359710   4.1345250
  84.6214000  22.9171660   6.7214810  83.8456100  22.4372100   7.0113380
  85.2726930  22.2377310   6.5470970  78.6379830  23.2291470   7.5990570
  77.8064710  22.9740180   7.9987080  79.2460810  23.3002240   8.3348490
  88.6421430  27.3231850   5.5013940  88.1802960  26.5519090   5.8301110
  89.4546980  27.3497920   6.0066390  78.6181090  27.2631560   7.7948590
  78.9209130  26.3729300   7.6158810  79.3624680  27.8201780   7.5670840
  75.0104790  20.7899010   7.2672660  75.5820900  20.0221210   7.2676300
  75.0106330  21.0887770   6.3579270  84.8684740  29.6089860   5.1217930
  84.2496180  30.0647360   4.5512370  85.7236520  29.7641320   4.7207630
  84.0622990  25.5928850   6.7284970  83.9931270  24.6518790   6.5674100
  84.8242850  25.6830260   7.3007540  76.2529660  16.1983370   9.0541590
  76.0732500  15.3009120   9.3344350  75.8509740  16.7455240   9.7288540
  85.0928160  18.3999230   6.9553900  85.4692980  17.5271110   6.8427570
  84.9947670  18.7357930   6.0644340  79.2233170  16.7724860   2.4171340
  79.3299920  17.6728590   2.7240100  78.3125530  16.7242830   2.1265990
  88.8752280  15.8949670   3.8882240  89.6961900  15.4046240   3.9307720
  88.9086360  16.4847330   4.6414080  76.8716330  18.6943870   7.6623930
  77.5526440  18.9582240   8.2811330  76.5564380  17.8544740   7.9961940
  81.0640900  19.7411230   6.7496520  81.5719120  20.2392200   7.3901540
  81.5954140  18.9646430   6.5735880  79.3477000  14.3809790  11.0159940
  79.3495440  14.8982180  10.2105840  78.5181310  13.9039970  10.9929870
  85.7348090  24.4929100   2.5149840  85.1165360  24.9578550   1.9512560
  86.2471340  25.1856580   2.9319350  80.5979850  24.0204970   9.1933440
  80.2649230  24.6473890   9.8354510  80.7746530  24.5466850   8.4135110
  89.1113760  17.8350050   6.6609780  88.4069330  18.1234940   7.2412890
  89.4725920  18.6450160   6.3009340  79.0292330  16.0919750   9.0230390
  79.3709140  16.9361800   8.7284260  78.0908140  16.2403490   9.1395730
  79.8098950  25.9885770  11.0082620  80.4272950  26.6636850  10.7267070
  78.9492070  26.3973750  10.9170120  82.7120220  13.5802020   5.3474980
  83.0195200  13.0248910   4.6310480  81.7820920  13.7146480   5.1647970
  88.2635280  29.2969310   7.6382440  88.2762440  28.8931600   6.7704700
  87.7110500  30.0716600   7.5343870  89.5580700  26.0185530   2.7272610
  89.4477030  25.0759860   2.8522030  89.5548950  26.3801170   3.6135370
  87.6620720  24.1999150   8.9665050  88.0789510  23.9859260   8.1318510
  88.3860540  24.4571940   9.5373670  85.1000980  21.6450850   2.0835100
  84.1730260  21.5788230   2.3123570  85.2525800  22.5830980   1.9690340
  89.1298270  23.2071150   2.5870350  88.5110690  22.8690700   1.9396650
  89.1122720  22.5630910   3.2949540  88.5724830  19.3855690  10.0036160
  88.1596010  20.2109400  10.2576150  87.8400780  18.8000730   9.8112520
  80.7057620  22.1715590   4.8654830  80.3014620  21.4592840   4.3700730
  80.7920740  21.8268830   5.7542870  81.1739320  25.8583150   7.0294040
  80.8767610  25.2528620   6.3501820  82.1239140  25.8960460   6.9183400
  79.4186240  18.9458800   8.6453870  79.9700830  19.0554140   7.8707120
  79.9329750  19.3196400   9.3609100  89.2624930  29.4315020  10.6917140
  88.7855490  30.2387210  10.4989750  88.5786720  28.7793350  10.8443350
  80.2657750  25.5964840  13.6801840  79.3686280  25.8204810  13.9275240
  80.2910620  25.7199780  12.7313240  79.0928970  22.4678160  12.2559210
  78.9536740  23.3400960  12.6246610  78.2110330  22.1250970  12.1107150
  85.4158350  27.3854030   3.5624340  85.8554260  28.1278360   3.1479730
  85.3545240  27.6280600   4.4863300  80.8909320  28.4099860  14.4644360
  80.8624750  28.8142810  13.5972790  80.7274290  27.4810220  14.3015960
  77.4062250  21.0660570   2.3661480  77.2859850  21.7922660   1.7542750
  77.0963140  20.2963480   1.8889390  75.0447620  24.2375710   8.1730120
  75.1228040  24.3724480   7.2285840  75.6589300  23.5291600   8.3658240
  76.2895250  25.9375900   4.5836300  75.8823330  26.0790490   3.7289900
  77.1808260  25.6536060   4.3807510  86.1074130  30.0867810  11.4903350
  86.6218800  29.9975820  12.2925780  85.2643210  30.4327510  11.7831260
  80.5616910  30.1521680   2.6958970  80.3859390  29.2357220   2.4826770
  79.7072650  30.5108970   2.9356770  87.3504590  29.5073420   3.5533840
  87.8061540  28.7262800   3.8672460  87.6897110  30.2180240   4.0975020
  75.1007140  25.2789880  10.7124580  75.2638180  24.8095240   9.8943950
  75.5659590  24.7713440  11.3773420  79.8725910  14.4095640   5.7485150
  79.4294060  15.1905180   5.4169670  80.4310900  14.7325530   6.4556090
  84.1595720  17.2764160  11.3520470  83.6975090  17.4847180  12.1640410
  83.7573830  16.4623510  11.0491140  89.1600230  18.4973110  12.4817130
  88.3093820  18.1978860  12.8026200  89.0002020  18.7415120  11.5700950
  86.2549940  19.9974860  14.5815920  86.5803350  19.1638610  14.2418150
  87.0430270  20.5203380  14.7294250  81.9101810  14.9542970   7.6074750
  82.2074140  15.8605800   7.5266770  82.4587370  14.4661750   6.9934320
  79.6640130  19.5329210   3.4766400  79.4381050  19.3166380   4.3813020
  78.8832660  19.9657670   3.1312370  82.1039340  20.4314790  14.1426670
  82.0082940  19.4909520  13.9927070  82.9471320  20.6529860  13.7474740
  85.5002760  18.1756120   4.1060330  85.8932330  18.4928320   3.2929020
  85.8619610  17.2968000   4.2204850  77.2349880  16.8428460  12.2960450
  76.8413270  17.6903670  12.5033230  76.5468280  16.2054830  12.4869090
  83.8094930  16.9263430  15.3657190  83.1193250  16.7335630  16.0003280
  84.5527230  17.2098070  15.8981490  74.5366930  14.7656920   6.3290530
  74.2479980  15.3359780   7.0415510  75.2812690  14.2861370   6.6921760
  86.0857900  20.7661870   8.2011110  85.3539020  21.2748680   8.5501210
  85.6882240  19.9491850   7.8999890  82.5235290  17.4416070   6.6063600
  82.5271350  17.0006020   5.7568140  83.4186410  17.7633400   6.7135420
  78.3737670  17.3242560   5.5657810  78.0337720  17.8017790   6.3224860
  77.6114990  16.8707680   5.2058910  86.5483810  16.2195550   7.6134050
  86.5656550  16.6704200   8.4575900  86.2999390  15.3201190   7.8267490
  89.9754560  13.6327730  13.4520430  90.3000330  12.9017390  13.9778410
  90.0111070  13.3141370  12.5501420  76.6746120  24.6541310  12.8720390
  76.2900910  24.0134980  13.4703350  76.9858310  25.3577430  13.4415120
  82.8243260  21.5017850   8.3529010  83.1913390  21.0276420   9.0990350
  82.6348320  22.3759420   8.6937350  75.6883750  16.2461540   4.4822480
  75.4030670  15.8817210   5.3201100  75.6262610  15.5142000   3.8685620
  80.6142630  20.5426490  10.6713220  80.3099700  21.4218470  10.8963580
  81.5689090  20.6026280  10.7070660  89.9012400  23.7452840   7.0606460
  90.6211520  24.2408130   6.6702570  89.6994220  23.0670730   6.4160330
  85.2831200  23.8161900  12.9475460  85.2168510  22.8957570  12.6933050
  84.6536340  23.9137340  13.6620100  79.1861820  24.4167860   4.9058880
  79.7040490  23.6136120   4.8515770  78.7345840  24.3547000   5.7475710
  76.6706360  21.3829230  11.8184580  76.3121300  22.0483080  12.4057920
  76.3760920  20.5512780  12.1897200  79.8719480  21.8413470  14.7024130
  79.5719620  21.9870650  13.8051950  80.6430720  21.2818760  14.6097520
  85.2147930  26.6382470  12.6979260  85.2292470  25.7063430  12.4798170
  84.5073030  26.7242230  13.3369030  86.9558730  25.0049980   5.5431690
  87.3082550  24.4078110   4.8833060  86.0721060  24.6794210   5.7139940
  83.0422010  25.7647670   2.9502100  83.7293140  26.3116880   3.3309690
  82.2554430  26.3088400   2.9851710  82.3449220  22.7693700   2.5627460
  82.8012000  23.5798950   2.7887650  81.9937430  22.4516840   3.3945950
  84.6481830  28.2800040   9.7919760  85.2924050  28.4859420  10.4693180
  85.0111270  27.5188440   9.3390610  78.2461000  13.1131350   3.0349980
  78.1175630  13.1049250   3.9834900  77.4223020  13.4514440   2.6840990
  85.9213910  26.2832390   8.5097210  86.5636140  25.5825550   8.6229380
  86.4463260  27.0630830   8.3294100  87.6951530  27.0827290  11.7133270
  88.0307770  27.6693980  12.3911190  86.7751870  26.9520000  11.9431060
  75.2454930  14.8722470  12.4956680  74.5313450  15.0719390  13.1009290
  75.6649970  14.0962040  12.8671480  75.5327520  28.8602730  13.4823210
  75.6418640  27.9197470  13.3418600  74.8808080  29.1257480  12.8336940
  83.5240110  27.1318620  14.8821330  83.2036980  26.4127860  15.4267020
  82.8498470  27.8073690  14.9557390  86.7393710  17.3644780  10.2458130
  87.1074530  16.5439990  10.5737700  85.8791910  17.4246670  10.6613780
  82.0739770  18.5987670   2.4703570  81.3655920  19.0674010   2.9117180
  82.3584250  17.9409680   3.1048760  83.6995700  20.0184370  10.4696100
  84.1980950  20.4930190  11.1347950  83.8418650  19.0947890  10.6766130
  86.1055200  15.3238330   3.9099360  85.9822980  15.3424460   2.9608870
  87.0539760  15.3717270   4.0297760  83.1931990  30.5593630   3.1827340
  83.4473490  30.5215020   2.2606710  82.2444470  30.4326960   3.1755590
  89.1984570  21.4785510   4.7585850  88.2574710  21.4935740   4.9333540
  89.5128640  20.6921470   5.2046150  78.6727680  30.7425570   6.1057240
  79.4090160  30.1941030   6.3765810  79.0568600  31.6081580   5.9663230
  75.5573160  26.8099140   1.9798750  74.6312940  27.0520280   1.9704160
  76.0229590  27.6373400   1.8583500  77.6785960  29.9271640  15.2942820
  78.4798690  30.2483690  15.7078220  77.1637780  29.5667220  16.0162730
  86.5150590  26.0351510  15.2418230  85.9088750  26.0583110  14.5013980
  86.2104700  25.3034550  15.7785480  87.9450960  29.7631800  13.8527640
  88.8972710  29.6789820  13.8027880  87.7979180  30.4273510  14.5261430
  75.3983770  22.4145100  14.2378870  75.9022790  21.8352380  14.8095100
  74.6591190  22.6985330  14.7755240  82.4521710  23.8216090  13.7714390
  81.6867380  24.3901090  13.6869060  82.6337670  23.5292300  12.8782620
  89.5945060  25.5521420  14.3289410  90.3354530  25.8897180  13.8256870
  88.8317740  25.7213480  13.7759180  77.4306850  20.5574690  15.1328940
  77.4712190  20.2588560  16.0414170  78.2852350  20.9582300  14.9736460
  79.3712660  19.1366790  13.1003430  78.8409120  18.6457740  12.4726770
  80.0400730  19.5650990  12.5661360  88.2690720  23.6036250  12.8644620
  88.6831740  23.7581330  13.7135040  87.3341720  23.7291470  13.0270400
  88.7412890  20.9432410  14.8683770  89.3233660  20.1884730  14.7804250
  88.9174660  21.4739850  14.0915250  79.8584960  16.1029160  13.1800720
  79.7641830  15.4849910  12.4551590  79.2782350  16.8295450  12.9530630
  82.6246400  14.6602400  10.2128110  82.1763700  14.6826660   9.3673660
  81.9911600  14.2621420  10.8098410  83.0305950  23.5556730  10.8340550
  83.4494060  24.3989460  10.6616790  82.1114580  23.6928770  10.6047330
  85.3669850  21.2872910  12.2178390  85.4866060  20.6914050  12.9573230
  86.2263850  21.3242600  11.7979690  87.7057750  21.8410100  10.7940900
  87.1792970  22.3652720  10.1906040  88.0489090  22.4737490  11.4250630
  80.8813370  29.8609740  11.9498280  80.3434460  30.5855800  11.6306980
  81.1347330  29.3840080  11.1595620  82.1338620  17.8294260  13.4754210
  82.7238310  17.5210110  14.1632030  81.3158860  17.3574010  13.6314110
  86.9532050  17.4460070  13.7087230  86.2647570  16.7841610  13.6437220
  87.6738070  16.9998340  14.1535690  83.7375580  31.0960950  12.2084930
  83.6634280  31.9996090  12.5157300  82.8354420  30.7772850  12.1807000
  75.1402870  28.4235540   5.5118550  75.4705880  27.5556600   5.2797190
  75.5693870  28.6294060   6.3423510  79.7364790  26.7544550   3.1720520
  79.4360330  26.6309520   4.0724430  79.6302280  25.8953140   2.7636250
  75.6293080  29.2906130   8.2500180  75.1924070  29.4706930   9.0824330
  76.1970760  30.0480750   8.1081900  75.4617510  21.8026360   4.6089060
  74.8066350  21.5338000   3.9648760  76.2995460  21.6930840   4.1591040
  89.9506900  25.5175110  10.6353650  89.1366740  25.9472270  10.8979440
  90.3581100  26.1293520  10.0222700  76.4993440  22.1878930   9.1492400
  76.8666480  22.1006330  10.0288420  75.9304260  21.4245480   9.0499260
  76.0509440  19.0988020  13.0550820  75.1565490  19.0654780  13.3944530
  76.5906990  19.2974810  13.8202070  89.7385370  15.8819740  14.9402570
  90.6155550  15.8903140  15.3236570  89.7506210  15.1450580  14.3294920
  76.5549150  13.3736350   7.4034040  77.2025340  12.8233730   6.9629200
  76.9750990  13.6279500   8.2249850  90.0082950  30.2693710   4.1621920
  90.6042020  29.9478280   3.4856340  90.2661100  29.7965530   4.9535190
  76.3081150  13.5292020  10.1459360  75.9595970  13.9855840  10.9117540
  75.9768850  12.6349150  10.2281790  77.9145520  26.7011620  14.3112550
  77.8715150  26.3304530  15.1927010  78.0456530  27.6389190  14.4514370
  81.6151550  28.2571210   9.9122270  81.3742910  28.5245770   9.0252790
  82.5554190  28.4276940   9.9673130  83.8205970  14.7203900  13.6678780
  83.7594860  15.3125730  14.4174190  84.7606350  14.6129860  13.5229040
  86.4580530  14.3773960  13.3071070  87.0720940  14.6953250  12.6452150
  87.0030090  13.8922550  13.9266930  76.9801790  13.0568220  13.4210130
  77.5284780  12.8756270  12.6576240  77.0457100  12.2662330  13.9566440
  77.7533550  29.6473870  11.4310330  77.1593870  29.5158570  12.1700370
  77.7457390  28.8112010  10.9652430  87.1988570  12.9406100   9.6340360
  86.3248410  13.2741210   9.4313290  87.0899320  12.4679280  10.4592230
  88.1060550  15.1476970  11.0182080  87.7773910  14.3328730  10.6383810
  89.0542850  15.1046780  10.8947770  90.5595160  30.9189010   7.9919650
  90.0998130  31.6704820   7.6177670  89.9307620  30.1995480   7.9334450
  77.3845780  27.0132250  10.3818370  76.6579840  26.3937540  10.3144320
  77.4454930  27.4072860   9.5116450  80.9890880  29.2277250   7.1667780
  81.5055900  28.6164610   6.6416040  81.6388260  29.7306030   7.6578790
  83.7286380  30.1185740   7.9936760  84.0164190  29.8640040   7.1169770
  84.2409600  29.5663100   8.5842330  84.9463390  13.8575940   8.5733270
  84.1635180  14.3321440   8.8530030  84.6526320  12.9530770   8.4646450
  89.4984460  14.5599040   6.6182360  89.9392550  14.5044140   5.7703960
  89.2292050  15.4757050   6.6892540  75.6675780  30.3306640   3.5915130
  75.4997820  29.6977320   4.2897020  74.8010290  30.5366040   3.2409320
  82.8317610  16.2762690   4.0849300  82.0192120  15.9019580   3.7445180
  83.3359250  15.5207770   4.3870490  87.3342590  12.9405140   5.3232370
  87.9371960  13.5125350   5.7980890  86.5935580  13.5044580   5.1006270
  80.8566790  14.4262610   2.6894350  80.2269530  13.7249920   2.8564480
  80.3171930  15.1866740   2.4727510  83.7958740  31.0401840  15.3604960
  84.7226050  30.8046110  15.4040920  83.7809170  31.8673840  14.8790990
  80.9822350  13.7046590  15.1246840  80.7006620  14.2080190  14.3607660
  81.3642050  12.9068340  14.7588970  87.5837810  13.1200170  15.7027310
  87.4703260  13.4394780  16.5978830  88.4007550  13.5212680  15.4064590
  84.6214000   4.1428170  63.0445280  83.8456100   3.6628610  63.3343850
  85.2726930   3.4633820  62.8701440  78.6379830   4.4547980  63.9221040
  77.8064710   4.1996690  64.3217550  79.2460810   4.5258750  64.6578960
  88.6421430   8.5488360  61.8244410  88.1802960   7.7775600  62.1531580
  89.4546980   8.5754430  62.3296860  78.6181090   8.4888070  64.1179060
  78.9209130   7.5985810  63.9389280  79.3624680   9.0458290  63.8901310
  84.8684740  10.8346370  61.4448400  84.2496180  11.2903870  60.8742840
  85.7236520  10.9897830  61.0438100  84.0622990   6.8185360  63.0515440
  83.9931270   5.8775300  62.8904570  84.8242850   6.9086770  63.6238010
  85.7348090   5.7185610  58.8380310  85.1165360   6.1835060  58.2743030
  86.2471340   6.4113090  59.2549820  80.5979850   5.2461480  65.5163910
  80.2649230   5.8730400  66.1584980  80.7746530   5.7723360  64.7365580
  79.8098950   7.2142280  67.3313090  80.4272950   7.8893360  67.0497540
  78.9492070   7.6230260  67.2400590  75.1031290   6.4042140  56.2119940
  74.7259270   6.8929240  55.4804840  75.3604360   7.0767420  56.8426470
  88.2635280  10.5225820  63.9612910  88.2762440  10.1188110  63.0935170
  87.7110500  11.2973110  63.8574340  89.5580700   7.2442040  59.0503080
  89.4477030   6.3016370  59.1752500  89.5548950   7.6057680  59.9365840
  87.6620720   5.4255660  65.2895520  88.0789510   5.2115770  64.4548980
  88.3860540   5.6828450  65.8604140  85.1000980   2.8707360  58.4065570
  84.1730260   2.8044740  58.6354040  85.2525800   3.8087490  58.2920810
  89.1298270   4.4327660  58.9100820  88.5110690   4.0947210  58.2627120
  89.1122720   3.7887420  59.6180010  80.7057620   3.3972100  61.1885300
  80.3014620   2.6849350  60.6931200  80.7920740   3.0525340  62.0773340
  81.1739320   7.0839660  63.3524510  80.8767610   6.4785130  62.6732290
  82.1239140   7.1216970  63.2413870  89.2624930  10.6571530  67.0147610
  88.7855490  11.4643720  66.8220220  88.5786720  10.0049860  67.1673820
  87.3062970   3.6714470  55.9173570  87.7456250   2.8336900  55.7711390
  88.0191390   4.3043870  56.0037710  85.4158350   8.6110540  59.8854810
  85.8554260   9.3534870  59.4710200  85.3545240   8.8537110  60.8093770
  77.4062250   2.2917080  58.6891950  77.2859850   3.0179170  58.0773220
  77.0963140   1.5219990  58.2119860  75.0447620   5.4632220  64.4960590
  75.1228040   5.5980990  63.5516310  75.6589300   4.7548110  64.6888710
  76.2895250   7.1632410  60.9066770  75.8823330   7.3047000  60.0520370
  77.1808260   6.8792570  60.7037980  88.0828530  11.5979660  57.2417820
  87.9229670  11.3082600  58.1399650  87.9175240  10.8219790  56.7063050
  80.5616910  11.3778190  59.0189440  80.3859390  10.4613730  58.8057240
  79.7072650  11.7365480  59.2587240  87.7854660   9.1067220  55.8015820
  87.0919820   9.1044510  55.1418100  88.5277520   8.6826540  55.3709990
  87.3504590  10.7329930  59.8764310  87.8061540   9.9519310  60.1902930
  87.6897110  11.4436750  60.4205490  75.1007140   6.5046390  67.0355050
  75.2638180   6.0351750  66.2174420  75.5659590   5.9969950  67.7003890
  81.5976940   1.9785800  55.3184130  81.0293840   1.5304050  54.6920040
  82.3065940   2.3378580  54.7849280  82.8243260   2.7274360  64.6759480
  83.1913390   2.2532930  65.4220820  82.6348320   3.6015930  65.0167820
  80.6142630   1.7683000  66.9943690  80.3099700   2.6474980  67.2194050
  81.5689090   1.8282790  67.0301130  79.1424420   5.9743990  57.5910540
  78.3686680   5.4341610  57.4309260  79.8719050   5.4550600  57.2528300
  89.9012400   4.9709350  63.3836930  90.6211520   5.4664640  62.9933040
  89.6994220   4.2927240  62.7390800  79.1861820   5.6424370  61.2289350
  79.7040490   4.8392630  61.1746240  78.7345840   5.5803510  62.0706180
  84.0731320   6.9090650  56.5016650  84.4147020   7.6532880  56.0059970
  83.2444030   7.2221770  56.8641480  86.9558730   6.2306490  61.8662160
  87.3082550   5.6334620  61.2063530  86.0721060   5.9050720  62.0370410
  83.0422010   6.9904180  59.2732570  83.7293140   7.5373390  59.6540160
  82.2554430   7.5344910  59.3082180  75.1814410   2.6077000  54.7649650
  76.0509260   2.8901800  55.0485570  74.6904730   3.4212870  54.6498460
  82.3449220   3.9950210  58.8857930  82.8012000   4.8055460  59.1118120
  81.9937430   3.6773350  59.7176420  84.6481830   9.5056550  66.1150230
  85.2924050   9.7115930  66.7923650  85.0111270   8.7444950  65.6621080
  85.9213910   7.5088900  64.8327680  86.5636140   6.8082060  64.9459850
  86.4463260   8.2887340  64.6524570  89.7669630   7.7937520  54.5566820
  89.5407210   7.0767960  55.1491460  89.3765830   7.5449960  53.7188570
  75.5485660  11.8204380  55.3311280  75.9083300  12.4193720  54.6768550
  75.4078000  12.3664270  56.1046310  89.3485880   5.7109460  56.2180980
  89.0607580   6.1722150  57.0058860  90.1438050   5.2507230  56.4865200
  81.5654280   9.2035580  56.1484950  81.5564380   9.9365270  55.5329460
  80.6452640   8.9567160  56.2411910  77.1660920   4.4250470  56.8931710
  76.5588870   5.1649370  56.9027010  77.6410270   4.5149830  56.0669910
  84.5513880   9.2663820  54.8110140  84.6525860   9.0627810  53.8812120
  83.6515620   9.0122100  55.0157920  83.1931990  11.7850140  59.5057810
  83.4473490  11.7471530  58.5837180  82.2444470  11.6583470  59.4986060
  89.1984570   2.7042020  61.0816320  88.2574710   2.7192250  61.2564010
  89.5128640   1.9177980  61.5276620  79.1766210   4.3861620  54.6420280
  79.9429480   4.2742980  55.2045710  79.2540900   3.6899590  53.9897050
  78.6727680  11.9682080  62.4287710  79.4090160  11.4197540  62.6996280
  79.0568600  12.8338090  62.2893700  75.5573160   8.0355650  58.3029220
  74.6312940   8.2776790  58.2934630  76.0229590   8.8629910  58.1813970
  81.7829990  11.1412390  54.2513280  82.5758600  11.4301220  53.7995070
  81.2634340  10.7104560  53.5725760  82.3007390   6.3615800  54.1155630
  82.1958030   5.7468150  54.8417010  82.1331610   5.8381690  53.3318640
  85.5410120   5.4235830  54.7197620  84.9920220   5.8705130  55.3640360
  86.1629380   4.9185080  55.2435290  81.2085240   4.3826750  56.6162920
  81.6301660   4.2166620  57.4594310  81.3336080   3.5726980  56.1218060
  83.7212880   3.4064360  53.8640020  84.2418540   2.6913380  53.4981170
  84.3681280   4.0450230  54.1640530  83.0305950   4.7813240  67.1571020
  83.4494060   5.6245970  66.9847260  82.1114580   4.9185280  66.9277800
  87.7057750   3.0666610  67.1171370  87.1792970   3.5909230  66.5136510
  88.0489090   3.6994000  67.7481100  84.2860910  11.4875970  56.1541760
  85.1811700  11.8260940  56.1760520  84.3178540  10.7655380  55.5266040
  77.9257070   6.8603020  54.3828760  78.3631940   7.4032690  55.0386340
  78.4104800   6.0349970  54.3925100  75.1402870   9.6492050  61.8349020
  75.4705880   8.7813110  61.6027660  75.5693870   9.8550570  62.6653980
  79.7364790   7.9801060  59.4950990  79.4360330   7.8566030  60.3954900
  79.6302280   7.1209650  59.0866720  75.6293080  10.5162640  64.5730650
  75.1924070  10.6963440  65.4054800  76.1970760  11.2737260  64.4312370
  75.4617510   3.0282870  60.9319530  74.8066350   2.7594510  60.2879230
  76.2995460   2.9187350  60.4821510  89.9506900   6.7431620  66.9584120
  89.1366740   7.1728780  67.2209910  90.3581100   7.3550030  66.3453170
  76.4993440   3.4135440  65.4722870  76.8666480   3.3262840  66.3518890
  75.9304260   2.6501990  65.3729730  90.0082950  11.4950220  60.4852390
  90.6042020  11.1734790  59.8086810  90.2661100  11.0222040  61.2765660
  81.6151550   9.4827720  66.2352740  81.3742910   9.7502280  65.3483260
  82.5554190   9.6533450  66.2903600  90.5595160  12.1445520  64.3150120
  90.0998130  12.8961330  63.9408140  89.9307620  11.4251990  64.2564920
  77.3845780   8.2388760  66.7048840  76.6579840   7.6194050  66.6374790
  77.4454930   8.6329370  65.8346920  80.9890880  10.4533760  63.4898250
  81.5055900   9.8421120  62.9646510  81.6388260  10.9562540  63.9809260
  83.7286380  11.3442250  64.3167230  84.0164190  11.0896550  63.4400240
  84.2409600  10.7919610  64.9072800  75.6675780  11.5563150  59.9145600
  75.4997820  10.9233830  60.6127490  74.8010290  11.7622550  59.5639790
  77.2738480  10.2496380  57.3595740  76.7486100  10.6304410  56.6557700
  77.1983060  10.8747150  58.0805450  79.8731450  12.1978760  56.2344990
  80.6050270  11.9138040  55.6868880  80.1325120  11.9592040  57.1244370
  79.0346240   8.3143490  56.2391320  78.4055120   8.7828590  56.7877150
  79.1494070   7.4692710  56.6737510  84.6214000   4.1428170  44.2701790
  83.8456100   3.6628610  44.5600360  85.2726930   3.4633820  44.0957950
  78.6379830   4.4547980  45.1477550  77.8064710   4.1996690  45.5474060
  79.2460810   4.5258750  45.8835470  88.6421430   8.5488360  43.0500920
  88.1802960   7.7775600  43.3788090  89.4546980   8.5754430  43.5553370
  78.6181090   8.4888070  45.3435570  78.9209130   7.5985810  45.1645790
  79.3624680   9.0458290  45.1157820  84.8684740  10.8346370  42.6704910
  84.2496180  11.2903870  42.0999350  85.7236520  10.9897830  42.2694610
  84.0622990   6.8185360  44.2771950  83.9931270   5.8775300  44.1161080
  84.8242850   6.9086770  44.8494520  85.7348090   5.7185610  40.0636820
  85.1165360   6.1835060  39.4999540  86.2471340   6.4113090  40.4806330
  80.5979850   5.2461480  46.7420420  80.2649230   5.8730400  47.3841490
  80.7746530   5.7723360  45.9622090  79.8098950   7.2142280  48.5569600
  80.4272950   7.8893360  48.2754050  78.9492070   7.6230260  48.4657100
  75.1031290   6.4042140  37.4376450  74.7259270   6.8929240  36.7061350
  75.3604360   7.0767420  38.0682980  88.2635280  10.5225820  45.1869420
  88.2762440  10.1188110  44.3191680  87.7110500  11.2973110  45.0830850
  89.5580700   7.2442040  40.2759590  89.4477030   6.3016370  40.4009010
  89.5548950   7.6057680  41.1622350  87.6620720   5.4255660  46.5152030
  88.0789510   5.2115770  45.6805490  88.3860540   5.6828450  47.0860650
  85.1000980   2.8707360  39.6322080  84.1730260   2.8044740  39.8610550
  85.2525800   3.8087490  39.5177320  89.1298270   4.4327660  40.1357330
  88.5110690   4.0947210  39.4883630  89.1122720   3.7887420  40.8436520
  80.7057620   3.3972100  42.4141810  80.3014620   2.6849350  41.9187710
  80.7920740   3.0525340  43.3029850  81.1739320   7.0839660  44.5781020
  80.8767610   6.4785130  43.8988800  82.1239140   7.1216970  44.4670380
  89.2624930  10.6571530  48.2404120  88.7855490  11.4643720  48.0476730
  88.5786720  10.0049860  48.3930330  80.2657750   6.8221350  51.2288820
  79.3686280   7.0461320  51.4762220  80.2910620   6.9456290  50.2800220
  87.3062970   3.6714470  37.1430080  87.7456250   2.8336900  36.9967900
  88.0191390   4.3043870  37.2294220  79.0928970   3.6934670  49.8046190
  78.9536740   4.5657470  50.1733590  78.2110330   3.3507480  49.6594130
  85.4158350   8.6110540  41.1111320  85.8554260   9.3534870  40.6966710
  85.3545240   8.8537110  42.0350280  80.8909320   9.6356370  52.0131340
  80.8624750  10.0399320  51.1459770  80.7274290   8.7066730  51.8502940
  77.4062250   2.2917080  39.9148460  77.2859850   3.0179170  39.3029730
  77.0963140   1.5219990  39.4376370  75.0447620   5.4632220  45.7217100
  75.1228040   5.5980990  44.7772820  75.6589300   4.7548110  45.9145220
  76.2895250   7.1632410  42.1323280  75.8823330   7.3047000  41.2776880
  77.1808260   6.8792570  41.9294490  86.1074130  11.3124320  49.0390330
  86.6218800  11.2232330  49.8412760  85.2643210  11.6584020  49.3318240
  88.0828530  11.5979660  38.4674330  87.9229670  11.3082600  39.3656160
  87.9175240  10.8219790  37.9319560  80.5616910  11.3778190  40.2445950
  80.3859390  10.4613730  40.0313750  79.7072650  11.7365480  40.4843750
  87.7854660   9.1067220  37.0272330  87.0919820   9.1044510  36.3674610
  88.5277520   8.6826540  36.5966500  87.3504590  10.7329930  41.1020820
  87.8061540   9.9519310  41.4159440  87.6897110  11.4436750  41.6462000
  75.1007140   6.5046390  48.2611560  75.2638180   6.0351750  47.4430930
  75.5659590   5.9969950  48.9260400  81.5976940   1.9785800  36.5440640
  81.0293840   1.5304050  35.9176550  82.3065940   2.3378580  36.0105790
  76.6746120   5.8797820  50.4207370  76.2900910   5.2391490  51.0190330
  76.9858310   6.5833940  50.9902100  82.8243260   2.7274360  45.9015990
  83.1913390   2.2532930  46.6477330  82.6348320   3.6015930  46.2424330
  80.6142630   1.7683000  48.2200200  80.3099700   2.6474980  48.4450560
  81.5689090   1.8282790  48.2557640  79.1424420   5.9743990  38.8167050
  78.3686680   5.4341610  38.6565770  79.8719050   5.4550600  38.4784810
  89.9012400   4.9709350  44.6093440  90.6211520   5.4664640  44.2189550
  89.6994220   4.2927240  43.9647310  85.2831200   5.0418410  50.4962440
  85.2168510   4.1214080  50.2420030  84.6536340   5.1393850  51.2107080
  79.1861820   5.6424370  42.4545860  79.7040490   4.8392630  42.4002750
  78.7345840   5.5803510  43.2962690  84.0731320   6.9090650  37.7273160
  84.4147020   7.6532880  37.2316480  83.2444030   7.2221770  38.0897990
  76.6706360   2.6085740  49.3671560  76.3121300   3.2739590  49.9544900
  76.3760920   1.7769290  49.7384180  79.8719480   3.0669980  52.2511110
  79.5719620   3.2127160  51.3538930  80.6430720   2.5075270  52.1584500
  85.2147930   7.8638980  50.2466240  85.2292470   6.9319940  50.0285150
  84.5073030   7.9498740  50.8856010  86.9558730   6.2306490  43.0918670
  87.3082550   5.6334620  42.4320040  86.0721060   5.9050720  43.2626920
  83.0422010   6.9904180  40.4989080  83.7293140   7.5373390  40.8796670
  82.2554430   7.5344910  40.5338690  75.1814410   2.6077000  35.9906160
  76.0509260   2.8901800  36.2742080  74.6904730   3.4212870  35.8754970
  82.3449220   3.9950210  40.1114440  82.8012000   4.8055460  40.3374630
  81.9937430   3.6773350  40.9432930  84.6481830   9.5056550  47.3406740
  85.2924050   9.7115930  48.0180160  85.0111270   8.7444950  46.8877590
  85.9213910   7.5088900  46.0584190  86.5636140   6.8082060  46.1716360
  86.4463260   8.2887340  45.8781080  89.7669630   7.7937520  35.7823330
  89.5407210   7.0767960  36.3747970  89.3765830   7.5449960  34.9445080
  87.6951530   8.3083800  49.2620250  88.0307770   8.8950490  49.9398170
  86.7751870   8.1776510  49.4918040  75.5485660  11.8204380  36.5567790
  75.9083300  12.4193720  35.9025060  75.4078000  12.3664270  37.3302820
  89.3485880   5.7109460  37.4437490  89.0607580   6.1722150  38.2315370
  90.1438050   5.2507230  37.7121710  75.5327520  10.0859240  51.0310190
  75.6418640   9.1453980  50.8905580  74.8808080  10.3513990  50.3823920
  83.5240110   8.3575130  52.4308310  83.2036980   7.6384370  52.9754000
  82.8498470   9.0330200  52.5044370  81.5654280   9.2035580  37.3741460
  81.5564380   9.9365270  36.7585970  80.6452640   8.9567160  37.4668420
  77.1660920   4.4250470  38.1188220  76.5588870   5.1649370  38.1283520
  77.6410270   4.5149830  37.2926420  84.5513880   9.2663820  36.0366650
  84.6525860   9.0627810  35.1068630  83.6515620   9.0122100  36.2414430
  83.1931990  11.7850140  40.7314320  83.4473490  11.7471530  39.8093690
  82.2444470  11.6583470  40.7242570  89.1984570   2.7042020  42.3072830
  88.2574710   2.7192250  42.4820520  89.5128640   1.9177980  42.7533130
  79.1766210   4.3861620  35.8676790  79.9429480   4.2742980  36.4302220
  79.2540900   3.6899590  35.2153560  78.6727680  11.9682080  43.6544220
  79.4090160  11.4197540  43.9252790  79.0568600  12.8338090  43.5150210
  75.5573160   8.0355650  39.5285730  74.6312940   8.2776790  39.5191140
  76.0229590   8.8629910  39.4070480  77.6785960  11.1528150  52.8429800
  78.4798690  11.4740200  53.2565200  77.1637780  10.7923730  53.5649710
  81.7829990  11.1412390  35.4769790  82.5758600  11.4301220  35.0251580
  81.2634340  10.7104560  34.7982270  86.5150590   7.2608020  52.7905210
  85.9088750   7.2839620  52.0500960  86.2104700   6.5291060  53.3272460
  87.9450960  10.9888310  51.4014620  88.8972710  10.9046330  51.3514860
  87.7979180  11.6530020  52.0748410  75.3983770   3.6401610  51.7865850
  75.9022790   3.0608890  52.3582080  74.6591190   3.9241840  52.3242220
  82.3007390   6.3615800  35.3412140  82.1958030   5.7468150  36.0673520
  82.1331610   5.8381690  34.5575150  82.4521710   5.0472600  51.3201370
  81.6867380   5.6157600  51.2356040  82.6337670   4.7548810  50.4269600
  85.5410120   5.4235830  35.9454130  84.9920220   5.8705130  36.5896870
  86.1629380   4.9185080  36.4691800  89.5945060   6.7777930  51.8776390
  90.3354530   7.1153690  51.3743850  88.8317740   6.9469990  51.3246160
  77.4306850   1.7831200  52.6815920  77.4712190   1.4845070  53.5901150
  78.2852350   2.1838810  52.5223440  81.2085240   4.3826750  37.8419430
  81.6301660   4.2166620  38.6850820  81.3336080   3.5726980  37.3474570
  83.7212880   3.4064360  35.0896530  84.2418540   2.6913380  34.7237680
  84.3681280   4.0450230  35.3897040  88.2690720   4.8292760  50.4131600
  88.6831740   4.9837840  51.2622020  87.3341720   4.9547980  50.5757380
  83.0305950   4.7813240  48.3827530  83.4494060   5.6245970  48.2103770
  82.1114580   4.9185280  48.1534310  85.3669850   2.5129420  49.7665370
  85.4866060   1.9170560  50.5060210  86.2263850   2.5499110  49.3466670
  87.7057750   3.0666610  48.3427880  87.1792970   3.5909230  47.7393020
  88.0489090   3.6994000  48.9737610  80.8813370  11.0866250  49.4985260
  80.3434460  11.8112310  49.1793960  81.1347330  10.6096590  48.7082600
  83.7375580  12.3217460  49.7571910  83.6634280  13.2252600  50.0644280
  82.8354420  12.0029360  49.7293980  84.2860910  11.4875970  37.3798270
  85.1811700  11.8260940  37.4017030  84.3178540  10.7655380  36.7522550
  77.9257070   6.8603020  35.6085270  78.3631940   7.4032690  36.2642850
  78.4104800   6.0349970  35.6181610  75.1402870   9.6492050  43.0605530
  75.4705880   8.7813110  42.8284170  75.5693870   9.8550570  43.8910490
  79.7364790   7.9801060  40.7207500  79.4360330   7.8566030  41.6211410
  79.6302280   7.1209650  40.3123230  75.6293080  10.5162640  45.7987160
  75.1924070  10.6963440  46.6311310  76.1970760  11.2737260  45.6568880
  75.4617510   3.0282870  42.1576040  74.8066350   2.7594510  41.5135740
  76.2995460   2.9187350  41.7078020  89.9506900   6.7431620  48.1840630
  89.1366740   7.1728780  48.4466420  90.3581100   7.3550030  47.5709680
  76.4993440   3.4135440  46.6979380  76.8666480   3.3262840  47.5775400
  75.9304260   2.6501990  46.5986240  90.0082950  11.4950220  41.7108900
  90.6042020  11.1734790  41.0343320  90.2661100  11.0222040  42.5022170
  77.9145520   7.9268130  51.8599530  77.8715150   7.5561040  52.7413990
  78.0456530   8.8645700  52.0001350  81.6151550   9.4827720  47.4609250
  81.3742910   9.7502280  46.5739770  82.5554190   9.6533450  47.5160110
  77.7533550  10.8730380  48.9797310  77.1593870  10.7415080  49.7187350
  77.7457390  10.0368520  48.5139410  90.5595160  12.1445520  45.5406630
  90.0998130  12.8961330  45.1664650  89.9307620  11.4251990  45.4821430
  77.3845780   8.2388760  47.9305350  76.6579840   7.6194050  47.8631300
  77.4454930   8.6329370  47.0603430  80.9890880  10.4533760  44.7154760
  81.5055900   9.8421120  44.1903020  81.6388260  10.9562540  45.2065770
  83.7286380  11.3442250  45.5423740  84.0164190  11.0896550  44.6656750
  84.2409600  10.7919610  46.1329310  75.6675780  11.5563150  41.1402110
  75.4997820  10.9233830  41.8384000  74.8010290  11.7622550  40.7896300
  77.2738480  10.2496380  38.5852250  76.7486100  10.6304410  37.8814210
  77.1983060  10.8747150  39.3061960  83.7958740  12.2658350  52.9091940
  84.7226050  12.0302620  52.9527900  83.7809170  13.0930350  52.4277970
  79.8731450  12.1978760  37.4601500  80.6050270  11.9138040  36.9125390
  80.1325120  11.9592040  38.3500880  79.0346240   8.3143490  37.4647830
  78.4055120   8.7828590  38.0133660  79.1494070   7.4692710  37.8994020
  84.6214000   4.1428170  25.4958300  83.8456100   3.6628610  25.7856870
  85.2726930   3.4633820  25.3214460  78.6379830   4.4547980  26.3734060
  77.8064710   4.1996690  26.7730570  79.2460810   4.5258750  27.1091980
  88.6421430   8.5488360  24.2757430  88.1802960   7.7775600  24.6044600
  89.4546980   8.5754430  24.7809880  78.6181090   8.4888070  26.5692080
  78.9209130   7.5985810  26.3902300  79.3624680   9.0458290  26.3414330
  84.8684740  10.8346370  23.8961420  84.2496180  11.2903870  23.3255860
  85.7236520  10.9897830  23.4951120  84.0622990   6.8185360  25.5028460
  83.9931270   5.8775300  25.3417590  84.8242850   6.9086770  26.0751030
  85.7348090   5.7185610  21.2893330  85.1165360   6.1835060  20.7256050
  86.2471340   6.4113090  21.7062840  80.5979850   5.2461480  27.9676930
  80.2649230   5.8730400  28.6098000  80.7746530   5.7723360  27.1878600
  79.8098950   7.2142280  29.7826110  80.4272950   7.8893360  29.5010560
  78.9492070   7.6230260  29.6913610  75.1031290   6.4042140  18.6632960
  74.7259270   6.8929240  17.9317860  75.3604360   7.0767420  19.2939490
  88.2635280  10.5225820  26.4125930  88.2762440  10.1188110  25.5448190
  87.7110500  11.2973110  26.3087360  89.5580700   7.2442040  21.5016100
  89.4477030   6.3016370  21.6265520  89.5548950   7.6057680  22.3878860
  87.6620720   5.4255660  27.7408540  88.0789510   5.2115770  26.9062000
  88.3860540   5.6828450  28.3117160  85.1000980   2.8707360  20.8578590
  84.1730260   2.8044740  21.0867060  85.2525800   3.8087490  20.7433830
  89.1298270   4.4327660  21.3613840  88.5110690   4.0947210  20.7140140
  89.1122720   3.7887420  22.0693030  80.7057620   3.3972100  23.6398320
  80.3014620   2.6849350  23.1444220  80.7920740   3.0525340  24.5286360
  81.1739320   7.0839660  25.8037530  80.8767610   6.4785130  25.1245310
  82.1239140   7.1216970  25.6926890  89.2624930  10.6571530  29.4660630
  88.7855490  11.4643720  29.2733240  88.5786720  10.0049860  29.6186840
  80.2657750   6.8221350  32.4545330  79.3686280   7.0461320  32.7018730
  80.2910620   6.9456290  31.5056730  87.3062970   3.6714470  18.3686590
  87.7456250   2.8336900  18.2224410  88.0191390   4.3043870  18.4550730
  79.0928970   3.6934670  31.0302700  78.9536740   4.5657470  31.3990100
  78.2110330   3.3507480  30.8850640  85.4158350   8.6110540  22.3367830
  85.8554260   9.3534870  21.9223220  85.3545240   8.8537110  23.2606790
  80.8909320   9.6356370  33.2387850  80.8624750  10.0399320  32.3716280
  80.7274290   8.7066730  33.0759450  77.4062250   2.2917080  21.1404970
  77.2859850   3.0179170  20.5286240  77.0963140   1.5219990  20.6632880
  75.0447620   5.4632220  26.9473610  75.1228040   5.5980990  26.0029330
  75.6589300   4.7548110  27.1401730  76.2895250   7.1632410  23.3579790
  75.8823330   7.3047000  22.5033390  77.1808260   6.8792570  23.1551000
  86.1074130  11.3124320  30.2646840  86.6218800  11.2232330  31.0669270
  85.2643210  11.6584020  30.5574750  88.0828530  11.5979660  19.6930840
  87.9229670  11.3082600  20.5912670  87.9175240  10.8219790  19.1576070
  80.5616910  11.3778190  21.4702460  80.3859390  10.4613730  21.2570260
  79.7072650  11.7365480  21.7100260  87.7854660   9.1067220  18.2528840
  87.0919820   9.1044510  17.5931120  88.5277520   8.6826540  17.8223010
  87.3504590  10.7329930  22.3277330  87.8061540   9.9519310  22.6415950
  87.6897110  11.4436750  22.8718510  75.1007140   6.5046390  29.4868070
  75.2638180   6.0351750  28.6687440  75.5659590   5.9969950  30.1516910
  81.5976940   1.9785800  17.7697150  81.0293840   1.5304050  17.1433060
  82.3065940   2.3378580  17.2362300  76.6746120   5.8797820  31.6463880
  76.2900910   5.2391490  32.2446840  76.9858310   6.5833940  32.2158610
  82.8243260   2.7274360  27.1272500  83.1913390   2.2532930  27.8733840
  82.6348320   3.6015930  27.4680840  80.6142630   1.7683000  29.4456710
  80.3099700   2.6474980  29.6707070  81.5689090   1.8282790  29.4814150
  79.1424420   5.9743990  20.0423560  78.3686680   5.4341610  19.8822280
  79.8719050   5.4550600  19.7041320  89.9012400   4.9709350  25.8349950
  90.6211520   5.4664640  25.4446060  89.6994220   4.2927240  25.1903820
  85.2831200   5.0418410  31.7218950  85.2168510   4.1214080  31.4676540
  84.6536340   5.1393850  32.4363590  79.1861820   5.6424370  23.6802370
  79.7040490   4.8392630  23.6259260  78.7345840   5.5803510  24.5219200
  84.0731320   6.9090650  18.9529670  84.4147020   7.6532880  18.4572990
  83.2444030   7.2221770  19.3154500  76.6706360   2.6085740  30.5928070
  76.3121300   3.2739590  31.1801410  76.3760920   1.7769290  30.9640690
  79.8719480   3.0669980  33.4767620  79.5719620   3.2127160  32.5795440
  80.6430720   2.5075270  33.3841010  85.2147930   7.8638980  31.4722750
  85.2292470   6.9319940  31.2541660  84.5073030   7.9498740  32.1112520
  86.9558730   6.2306490  24.3175180  87.3082550   5.6334620  23.6576550
  86.0721060   5.9050720  24.4883430  83.0422010   6.9904180  21.7245590
  83.7293140   7.5373390  22.1053180  82.2554430   7.5344910  21.7595200
  75.1814410   2.6077000  17.2162670  76.0509260   2.8901800  17.4998590
  74.6904730   3.4212870  17.1011480  82.3449220   3.9950210  21.3370950
  82.8012000   4.8055460  21.5631140  81.9937430   3.6773350  22.1689440
  84.6481830   9.5056550  28.5663250  85.2924050   9.7115930  29.2436670
  85.0111270   8.7444950  28.1134100  85.9213910   7.5088900  27.2840700
  86.5636140   6.8082060  27.3972870  86.4463260   8.2887340  27.1037590
  89.7669630   7.7937520  17.0079840  89.5407210   7.0767960  17.6004480
  89.3765830   7.5449960  16.1701590  87.6951530   8.3083800  30.4876760
  88.0307770   8.8950490  31.1654680  86.7751870   8.1776510  30.7174550
  75.5485660  11.8204380  17.7824300  75.9083300  12.4193720  17.1281570
  75.4078000  12.3664270  18.5559330  89.3485880   5.7109460  18.6694000
  89.0607580   6.1722150  19.4571880  90.1438050   5.2507230  18.9378220
  75.5327520  10.0859240  32.2566700  75.6418640   9.1453980  32.1162090
  74.8808080  10.3513990  31.6080430  83.5240110   8.3575130  33.6564820
  83.2036980   7.6384370  34.2010510  82.8498470   9.0330200  33.7300880
  81.5654280   9.2035580  18.5997970  81.5564380   9.9365270  17.9842480
  80.6452640   8.9567160  18.6924930  77.1660920   4.4250470  19.3444730
  76.5588870   5.1649370  19.3540030  77.6410270   4.5149830  18.5182930
  84.5513880   9.2663820  17.2623160  84.6525860   9.0627810  16.3325140
  83.6515620   9.0122100  17.4670940  83.1931990  11.7850140  21.9570830
  83.4473490  11.7471530  21.0350200  82.2444470  11.6583470  21.9499080
  89.1984570   2.7042020  23.5329340  88.2574710   2.7192250  23.7077030
  89.5128640   1.9177980  23.9789640  79.1766210   4.3861620  17.0933300
  79.9429480   4.2742980  17.6558730  79.2540900   3.6899590  16.4410070
  78.6727680  11.9682080  24.8800730  79.4090160  11.4197540  25.1509300
  79.0568600  12.8338090  24.7406720  75.5573160   8.0355650  20.7542240
  74.6312940   8.2776790  20.7447650  76.0229590   8.8629910  20.6326990
  77.6785960  11.1528150  34.0686310  78.4798690  11.4740200  34.4821710
  77.1637780  10.7923730  34.7906220  81.7829990  11.1412390  16.7026300
  82.5758600  11.4301220  16.2508090  81.2634340  10.7104560  16.0238780
  86.5150590   7.2608020  34.0161720  85.9088750   7.2839620  33.2757470
  86.2104700   6.5291060  34.5528970  87.9450960  10.9888310  32.6271130
  88.8972710  10.9046330  32.5771370  87.7979180  11.6530020  33.3004920
  75.3983770   3.6401610  33.0122360  75.9022790   3.0608890  33.5838590
  74.6591190   3.9241840  33.5498730  82.3007390   6.3615800  16.5668650
  82.1958030   5.7468150  17.2930030  82.1331610   5.8381690  15.7831660
  82.4521710   5.0472600  32.5457880  81.6867380   5.6157600  32.4612550
  82.6337670   4.7548810  31.6526110  85.5410120   5.4235830  17.1710640
  84.9920220   5.8705130  17.8153380  86.1629380   4.9185080  17.6948310
  89.5945060   6.7777930  33.1032900  90.3354530   7.1153690  32.6000360
  88.8317740   6.9469990  32.5502670  77.4306850   1.7831200  33.9072430
  77.4712190   1.4845070  34.8157660  78.2852350   2.1838810  33.7479950
  81.2085240   4.3826750  19.0675940  81.6301660   4.2166620  19.9107330
  81.3336080   3.5726980  18.5731080  83.7212880   3.4064360  16.3153040
  84.2418540   2.6913380  15.9494190  84.3681280   4.0450230  16.6153550
  88.2690720   4.8292760  31.6388110  88.6831740   4.9837840  32.4878530
  87.3341720   4.9547980  31.8013890  83.0305950   4.7813240  29.6084040
  83.4494060   5.6245970  29.4360280  82.1114580   4.9185280  29.3790820
  85.3669850   2.5129420  30.9921880  85.4866060   1.9170560  31.7316720
  86.2263850   2.5499110  30.5723180  87.7057750   3.0666610  29.5684390
  87.1792970   3.5909230  28.9649530  88.0489090   3.6994000  30.1994120
  80.8813370  11.0866250  30.7241770  80.3434460  11.8112310  30.4050470
  81.1347330  10.6096590  29.9339110  83.7375580  12.3217460  30.9828420
  83.6634280  13.2252600  31.2900790  82.8354420  12.0029360  30.9550490
  84.2860910  11.4875970  18.6054780  85.1811700  11.8260940  18.6273540
  84.3178540  10.7655380  17.9779060  77.9257070   6.8603020  16.8341780
  78.3631940   7.4032690  17.4899360  78.4104800   6.0349970  16.8438120
  75.1402870   9.6492050  24.2862040  75.4705880   8.7813110  24.0540680
  75.5693870   9.8550570  25.1167000  79.7364790   7.9801060  21.9464010
  79.4360330   7.8566030  22.8467920  79.6302280   7.1209650  21.5379740
  75.6293080  10.5162640  27.0243670  75.1924070  10.6963440  27.8567820
  76.1970760  11.2737260  26.8825390  75.4617510   3.0282870  23.3832550
  74.8066350   2.7594510  22.7392250  76.2995460   2.9187350  22.9334530
  89.9506900   6.7431620  29.4097140  89.1366740   7.1728780  29.6722930
  90.3581100   7.3550030  28.7966190  76.4993440   3.4135440  27.9235890
  76.8666480   3.3262840  28.8031910  75.9304260   2.6501990  27.8242750
  90.0082950  11.4950220  22.9365410  90.6042020  11.1734790  22.2599830
  90.2661100  11.0222040  23.7278680  77.9145520   7.9268130  33.0856040
  77.8715150   7.5561040  33.9670500  78.0456530   8.8645700  33.2257860
  81.6151550   9.4827720  28.6865760  81.3742910   9.7502280  27.7996280
  82.5554190   9.6533450  28.7416620  77.7533550  10.8730380  30.2053820
  77.1593870  10.7415080  30.9443860  77.7457390  10.0368520  29.7395920
  90.5595160  12.1445520  26.7663140  90.0998130  12.8961330  26.3921160
  89.9307620  11.4251990  26.7077940  77.3845780   8.2388760  29.1561860
  76.6579840   7.6194050  29.0887810  77.4454930   8.6329370  28.2859940
  80.9890880  10.4533760  25.9411270  81.5055900   9.8421120  25.4159530
  81.6388260  10.9562540  26.4322280  83.7286380  11.3442250  26.7680250
  84.0164190  11.0896550  25.8913260  84.2409600  10.7919610  27.3585820
  75.6675780  11.5563150  22.3658620  75.4997820  10.9233830  23.0640510
  74.8010290  11.7622550  22.0152810  77.2738480  10.2496380  19.8108760
  76.7486100  10.6304410  19.1070720  77.1983060  10.8747150  20.5318470
  83.7958740  12.2658350  34.1348450  84.7226050  12.0302620  34.1784410
  83.7809170  13.0930350  33.6534480  79.8731450  12.1978760  18.6858010
  80.6050270  11.9138040  18.1381900  80.1325120  11.9592040  19.5757390
  79.0346240   8.3143490  18.6904340  78.4055120   8.7828590  19.2390170
  79.1494070   7.4692710  19.1250530  84.6214000   4.1428170   6.7214810
  83.8456100   3.6628610   7.0113380  85.2726930   3.4633820   6.5470970
  78.6379830   4.4547980   7.5990570  77.8064710   4.1996690   7.9987080
  79.2460810   4.5258750   8.3348490  88.6421430   8.5488360   5.5013940
  88.1802960   7.7775600   5.8301110  89.4546980   8.5754430   6.0066390
  78.6181090   8.4888070   7.7948590  78.9209130   7.5985810   7.6158810
  79.3624680   9.0458290   7.5670840  84.8684740  10.8346370   5.1217930
  84.2496180  11.2903870   4.5512370  85.7236520  10.9897830   4.7207630
  84.0622990   6.8185360   6.7284970  83.9931270   5.8775300   6.5674100
  84.8242850   6.9086770   7.3007540  85.7348090   5.7185610   2.5149840
  85.1165360   6.1835060   1.9512560  86.2471340   6.4113090   2.9319350
  80.5979850   5.2461480   9.1933440  80.2649230   5.8730400   9.8354510
  80.7746530   5.7723360   8.4135110  79.8098950   7.2142280  11.0082620
  80.4272950   7.8893360  10.7267070  78.9492070   7.6230260  10.9170120
  88.2635280  10.5225820   7.6382440  88.2762440  10.1188110   6.7704700
  87.7110500  11.2973110   7.5343870  89.5580700   7.2442040   2.7272610
  89.4477030   6.3016370   2.8522030  89.5548950   7.6057680   3.6135370
  87.6620720   5.4255660   8.9665050  88.0789510   5.2115770   8.1318510
  88.3860540   5.6828450   9.5373670  85.1000980   2.8707360   2.0835100
  84.1730260   2.8044740   2.3123570  85.2525800   3.8087490   1.9690340
  89.1298270   4.4327660   2.5870350  88.5110690   4.0947210   1.9396650
  89.1122720   3.7887420   3.2949540  80.7057620   3.3972100   4.8654830
  80.3014620   2.6849350   4.3700730  80.7920740   3.0525340   5.7542870
  81.1739320   7.0839660   7.0294040  80.8767610   6.4785130   6.3501820
  82.1239140   7.1216970   6.9183400  89.2624930  10.6571530  10.6917140
  88.7855490  11.4643720  10.4989750  88.5786720  10.0049860  10.8443350
  80.2657750   6.8221350  13.6801840  79.3686280   7.0461320  13.9275240
  80.2910620   6.9456290  12.7313240  79.0928970   3.6934670  12.2559210
  78.9536740   4.5657470  12.6246610  78.2110330   3.3507480  12.1107150
  85.4158350   8.6110540   3.5624340  85.8554260   9.3534870   3.1479730
  85.3545240   8.8537110   4.4863300  80.8909320   9.6356370  14.4644360
  80.8624750  10.0399320  13.5972790  80.7274290   8.7066730  14.3015960
  77.4062250   2.2917080   2.3661480  77.2859850   3.0179170   1.7542750
  77.0963140   1.5219990   1.8889390  75.0447620   5.4632220   8.1730120
  75.1228040   5.5980990   7.2285840  75.6589300   4.7548110   8.3658240
  76.2895250   7.1632410   4.5836300  75.8823330   7.3047000   3.7289900
  77.1808260   6.8792570   4.3807510  86.1074130  11.3124320  11.4903350
  86.6218800  11.2232330  12.2925780  85.2643210  11.6584020  11.7831260
  80.5616910  11.3778190   2.6958970  80.3859390  10.4613730   2.4826770
  79.7072650  11.7365480   2.9356770  87.3504590  10.7329930   3.5533840
  87.8061540   9.9519310   3.8672460  87.6897110  11.4436750   4.0975020
  75.1007140   6.5046390  10.7124580  75.2638180   6.0351750   9.8943950
  75.5659590   5.9969950  11.3773420  76.6746120   5.8797820  12.8720390
  76.2900910   5.2391490  13.4703350  76.9858310   6.5833940  13.4415120
  82.8243260   2.7274360   8.3529010  83.1913390   2.2532930   9.0990350
  82.6348320   3.6015930   8.6937350  80.6142630   1.7683000  10.6713220
  80.3099700   2.6474980  10.8963580  81.5689090   1.8282790  10.7070660
  89.9012400   4.9709350   7.0606460  90.6211520   5.4664640   6.6702570
  89.6994220   4.2927240   6.4160330  85.2831200   5.0418410  12.9475460
  85.2168510   4.1214080  12.6933050  84.6536340   5.1393850  13.6620100
  79.1861820   5.6424370   4.9058880  79.7040490   4.8392630   4.8515770
  78.7345840   5.5803510   5.7475710  76.6706360   2.6085740  11.8184580
  76.3121300   3.2739590  12.4057920  76.3760920   1.7769290  12.1897200
  79.8719480   3.0669980  14.7024130  79.5719620   3.2127160  13.8051950
  80.6430720   2.5075270  14.6097520  85.2147930   7.8638980  12.6979260
  85.2292470   6.9319940  12.4798170  84.5073030   7.9498740  13.3369030
  86.9558730   6.2306490   5.5431690  87.3082550   5.6334620   4.8833060
  86.0721060   5.9050720   5.7139940  83.0422010   6.9904180   2.9502100
  83.7293140   7.5373390   3.3309690  82.2554430   7.5344910   2.9851710
  82.3449220   3.9950210   2.5627460  82.8012000   4.8055460   2.7887650
  81.9937430   3.6773350   3.3945950  84.6481830   9.5056550   9.7919760
  85.2924050   9.7115930  10.4693180  85.0111270   8.7444950   9.3390610
  85.9213910   7.5088900   8.5097210  86.5636140   6.8082060   8.6229380
  86.4463260   8.2887340   8.3294100  87.6951530   8.3083800  11.7133270
  88.0307770   8.8950490  12.3911190  86.7751870   8.1776510  11.9431060
  75.5327520  10.0859240  13.4823210  75.6418640   9.1453980  13.3418600
  74.8808080  10.3513990  12.8336940  83.5240110   8.3575130  14.8821330
  83.2036980   7.6384370  15.4267020  82.8498470   9.0330200  14.9557390
  83.1931990  11.7850140   3.1827340  83.4473490  11.7471530   2.2606710
  82.2444470  11.6583470   3.1755590  89.1984570   2.7042020   4.7585850
  88.2574710   2.7192250   4.9333540  89.5128640   1.9177980   5.2046150
  78.6727680  11.9682080   6.1057240  79.4090160  11.4197540   6.3765810
  79.0568600  12.8338090   5.9663230  75.5573160   8.0355650   1.9798750
  74.6312940   8.2776790   1.9704160  76.0229590   8.8629910   1.8583500
  77.6785960  11.1528150  15.2942820  78.4798690  11.4740200  15.7078220
  77.1637780  10.7923730  16.0162730  86.5150590   7.2608020  15.2418230
  85.9088750   7.2839620  14.5013980  86.2104700   6.5291060  15.7785480
  87.9450960  10.9888310  13.8527640  88.8972710  10.9046330  13.8027880
  87.7979180  11.6530020  14.5261430  75.3983770   3.6401610  14.2378870
  75.9022790   3.0608890  14.8095100  74.6591190   3.9241840  14.7755240
  82.4521710   5.0472600  13.7714390  81.6867380   5.6157600  13.6869060
  82.6337670   4.7548810  12.8782620  89.5945060   6.7777930  14.3289410
  90.3354530   7.1153690  13.8256870  88.8317740   6.9469990  13.7759180
  77.4306850   1.7831200  15.1328940  77.4712190   1.4845070  16.0414170
  78.2852350   2.1838810  14.9736460  88.2690720   4.8292760  12.8644620
  88.6831740   4.9837840  13.7135040  87.3341720   4.9547980  13.0270400
  83.0305950   4.7813240  10.8340550  83.4494060   5.6245970  10.6616790
  82.1114580   4.9185280  10.6047330  85.3669850   2.5129420  12.2178390
  85.4866060   1.9170560  12.9573230  86.2263850   2.5499110  11.7979690
  87.7057750   3.0666610  10.7940900  87.1792970   3.5909230  10.1906040
  88.0489090   3.6994000  11.4250630  80.8813370  11.0866250  11.9498280
  80.3434460  11.8112310  11.6306980  81.1347330  10.6096590  11.1595620
  83.7375580  12.3217460  12.2084930  83.6634280  13.2252600  12.5157300
  82.8354420  12.0029360  12.1807000  75.1402870   9.6492050   5.5118550
  75.4705880   8.7813110   5.2797190  75.5693870   9.8550570   6.3423510
  79.7364790   7.9801060   3.1720520  79.4360330   7.8566030   4.0724430
  79.6302280   7.1209650   2.7636250  75.6293080  10.5162640   8.2500180
  75.1924070  10.6963440   9.0824330  76.1970760  11.2737260   8.1081900
  75.4617510   3.0282870   4.6089060  74.8066350   2.7594510   3.9648760
  76.2995460   2.9187350   4.1591040  89.9506900   6.7431620  10.6353650
  89.1366740   7.1728780  10.8979440  90.3581100   7.3550030  10.0222700
  76.4993440   3.4135440   9.1492400  76.8666480   3.3262840  10.0288420
  75.9304260   2.6501990   9.0499260  90.0082950  11.4950220   4.1621920
  90.6042020  11.1734790   3.4856340  90.2661100  11.0222040   4.9535190
  77.9145520   7.9268130  14.3112550  77.8715150   7.5561040  15.1927010
  78.0456530   8.8645700  14.4514370  81.6151550   9.4827720   9.9122270
  81.3742910   9.7502280   9.0252790  82.5554190   9.6533450   9.9673130
  77.7533550  10.8730380  11.4310330  77.1593870  10.7415080  12.1700370
  77.7457390  10.0368520  10.9652430  90.5595160  12.1445520   7.9919650
  90.0998130  12.8961330   7.6177670  89.9307620  11.4251990   7.9334450
  77.3845780   8.2388760  10.3818370  76.6579840   7.6194050  10.3144320
  77.4454930   8.6329370   9.5116450  80.9890880  10.4533760   7.1667780
  81.5055900   9.8421120   6.6416040  81.6388260  10.9562540   7.6578790
  83.7286380  11.3442250   7.9936760  84.0164190  11.0896550   7.1169770
  84.2409600  10.7919610   8.5842330  75.6675780  11.5563150   3.5915130
  75.4997820  10.9233830   4.2897020  74.8010290  11.7622550   3.2409320
  83.7958740  12.2658350  15.3604960  84.7226050  12.0302620  15.4040920
  83.7809170  13.0930350  14.8790990  67.7152470  96.2366600  61.1636010
  67.6346520  95.3221210  60.8927720  67.3016890  96.7333670  60.4575720
  65.8470510  98.0145620  63.0445280  65.0712610  97.5346060  63.3343850
  66.4983440  97.3351270  62.8701440  59.8636340  98.3265430  63.9221040
  59.0321220  98.0714140  64.3217550  60.4717320  98.3976200  64.6578960
  58.2728290  93.2867320  57.7063430  57.3844990  93.6283290  57.6043310
  58.5569480  93.0867640  56.8144260  56.2361300  95.8872970  63.5903130
  56.8077410  95.1195170  63.5906770  56.2362840  96.1861730  62.6809740
  57.4786170  91.2957330  65.3772060  57.2989010  90.3983080  65.6574820
  57.0766250  91.8429200  66.0519010  66.3184670  93.4973190  63.2784370
  66.6949490  92.6245070  63.1658040  66.2204180  93.8331890  62.3874810
  60.4489680  91.8698820  58.7401810  60.5556430  92.7702550  59.0470570
  59.5382040  91.8216790  58.4496460  70.1008790  90.9923630  60.2112710
  70.9218410  90.5020200  60.2538190  70.1342870  91.5821290  60.9644550
  58.0972840  93.7917830  63.9854400  58.7782950  94.0556200  64.6041800
  57.7820890  92.9518700  64.3192410  62.2897410  94.8385190  63.0726990
  62.7975630  95.3366160  63.7132010  62.8210650  94.0620390  62.8966350
  74.3908340  93.0090380  66.7756340  73.6860510  93.3972090  66.2571450
  74.6566260  93.7040670  67.3777270  60.5733510  89.4783750  67.3390410
  60.5751950  89.9956140  66.5336310  59.7437820  89.0013930  67.3160340
  70.3370270  92.9324010  62.9840250  69.6325840  93.2208900  63.5643360
  70.6982430  93.7424120  62.6239810  60.2548840  91.1893710  65.3460860
  60.5965650  92.0335760  65.0514730  59.3164650  91.3377450  65.4626200
  73.4057190  92.3778800  63.3749460  72.4582100  92.4117780  63.5064890
  73.7307180  93.1917750  63.7598820  63.9376730  88.6775980  61.6705450
  64.2451710  88.1222870  60.9540950  63.0077430  88.8120440  61.4878440
  66.3257490  96.7424810  58.4065570  65.3986770  96.6762190  58.6354040
  66.4782310  97.6804940  58.2920810  66.3126570  93.0141810  55.4032730
  65.3730240  93.1755770  55.4885190  66.6309830  93.7327490  54.8568720
  72.8339330  97.6960330  65.3811760  72.0057960  97.7653420  64.9061890
  73.4289810  98.2814640  64.9127590  70.3554780  98.3045110  58.9100820
  69.7367200  97.9664660  58.2627120  70.3379230  97.6604870  59.6180010
  69.7981340  94.4829650  66.3266630  69.3852520  95.3083360  66.5806620
  69.0657290  93.8974690  66.1342990  61.9314130  97.2689550  61.1885300
  61.5271130  96.5566800  60.6931200  62.0177250  96.9242790  62.0773340
  60.6442750  94.0432760  64.9684340  61.1957340  94.1528100  64.1937590
  61.1586260  94.4170360  65.6839570  68.5319480  97.5431920  55.9173570
  68.9712760  96.7054350  55.7711390  69.2447900  98.1761320  56.0037710
  72.1136620  88.7974730  54.2314610  71.8009280  88.8901560  55.1313680
  72.8749090  89.3755760  54.1812040  58.6318760  96.1634530  58.6891950
  58.5116360  96.8896620  58.0773220  58.3219650  95.3937440  58.2119860
  61.0982420  89.5069600  62.0715620  60.6550570  90.2879140  61.7400140
  61.6567410  89.8299490  62.7786560  64.2141240  89.1280300  56.9521450
  63.5895420  89.1240170  57.6774760  64.1271360  88.2611260  56.5557420
  63.1358320  90.0516930  63.9305220  63.4330650  90.9579760  63.8497240
  63.6843880  89.5635710  63.3164790  60.8896640  94.6303170  59.7996870
  60.6637560  94.4140340  60.7043490  60.1089170  95.0631630  59.4542840
  68.1194400  94.6366540  58.3987520  67.5203290  95.3602340  58.2151140
  68.6674010  94.5743320  57.6163970  66.7259270  93.2730080  60.4290800
  67.1188840  93.5902280  59.6159490  67.0876120  92.3941960  60.5435320
  55.7623440  89.8630880  62.6521000  55.4736490  90.4333740  63.3645980
  56.5069200  89.3835330  63.0152230  55.9493670  93.8051000  53.8623720
  55.8668340  94.7481760  54.0038710  55.5976730  93.6625910  52.9836070
  67.3114410  95.8635830  64.5241580  66.5795530  96.3722640  64.8731680
  66.9138750  95.0465810  64.2230360  63.7491800  92.5390030  62.9294070
  63.7527860  92.0979980  62.0798610  64.6442920  92.8607360  63.0365890
  59.5994180  92.4216520  61.8888280  59.2594230  92.8991750  62.6455330
  58.8371500  91.9681640  61.5289380  63.8111950  93.5402110  55.9200830
  63.9324770  93.4988590  56.8686650  63.4260460  94.4026260  55.7647560
  67.7740320  91.3169510  63.9364520  67.7913060  91.7678160  64.7806370
  67.5255900  90.4175150  64.1497960  62.8233450  95.8503250  55.3184130
  62.2550350  95.4021500  54.6920040  63.5322450  96.2096030  54.7849280
  64.0499770  96.5991810  64.6759480  64.4169900  96.1250380  65.4220820
  63.8604830  97.4733380  65.0167820  56.9140260  91.3435500  60.8052950
  56.6287180  90.9791170  61.6431570  56.8519120  90.6115960  60.1916090
  61.8399140  95.6400450  66.9943690  61.5356210  96.5192430  67.2194050
  62.7945600  95.7000240  67.0301130  66.5878850  90.2364760  57.5266320
  65.7743460  89.7377930  57.4511630  66.3940800  91.0763010  57.1102670
  69.3027240  94.6084410  55.8228480  70.1906860  94.9201640  55.6479820
  69.2732330  93.7356660  55.4309060  71.5741510  95.9196250  55.2908340
  71.4905230  96.3510470  54.4404780  72.2935700  96.3794600  55.7235160
  56.4070920  96.4794450  54.7649650  57.2765770  96.7619250  55.0485570
  55.9161240  97.2930320  54.6498460  63.5705730  97.8667660  58.8857930
  64.0268510  98.6772910  59.1118120  63.2193940  97.5490800  59.7176420
  59.4717510  88.2105310  59.3580450  59.3432140  88.2023210  60.3065370
  58.6479530  88.5488400  59.0071460  67.9650220  92.4618740  66.5688600
  68.3331040  91.6413950  66.8968170  67.1048420  92.5220630  66.9844250
  71.3312250  91.4175680  57.3776160  70.7025410  91.5221350  56.6634390
  70.8364170  91.6372460  58.1670040  63.2996280  93.6961630  58.7934040
  62.5912430  94.1647970  59.2347650  63.5840760  93.0383640  59.4279230
  64.9252210  95.1158330  66.7926570  65.4237460  95.5904150  67.4578420
  65.0675160  94.1921850  66.9996600  67.3311710  90.4212290  60.2329830
  67.2079490  90.4398420  59.2839340  68.2796270  90.4691230  60.3528230
  61.5031300  92.0046710  56.1684750  62.3521830  92.4416860  56.1024940
  61.1362570  92.3166970  56.9956810  70.4241080  96.5759470  61.0816320
  69.4831220  96.5909700  61.2564010  70.7385150  95.7895430  61.5276620
  60.4022720  98.2579070  54.6420280  61.1685990  98.1460430  55.2045710
  60.4797410  97.5617040  53.9897050  59.0969480  95.6904140  55.3253170
  59.1773070  94.7431650  55.4370570  59.9889230  96.0211020  55.4313830
  62.4341750  98.2544200  56.6162920  62.8558170  98.0884070  57.4594310
  62.5592590  97.4444430  56.1218060  64.9469390  97.2781810  53.8640020
  65.4675050  96.5630830  53.4981170  65.5937790  97.9167680  54.1640530
  63.8502910  89.7576360  66.5358580  63.4020210  89.7800620  65.6904130
  63.2168110  89.3595380  67.1328880  68.9314260  96.9384060  67.1171370
  68.4049480  97.4626680  66.5136510  69.2745600  97.5711450  67.7481100
  61.3300650  94.3277430  53.5621080  61.1289710  93.4644790  53.9234420
  61.1592700  94.2410790  52.6242680  68.8088960  89.1385660  56.0907960
  69.0891250  88.2953560  56.4467380  68.0354690  89.3708770  56.6046710
  60.1283450  91.4278050  53.5498960  60.4309350  91.4345480  52.6418110
  60.8678040  91.0775910  54.0466620  63.3468380  90.3712670  54.5355160
  62.9990380  89.6936660  53.9557610  63.5481150  89.9102180  55.3498550
  56.6874020  96.9000320  60.9319530  56.0322860  96.6311960  60.2879230
  57.5251970  96.7904800  60.4821510  69.6364460  91.6941610  55.1538020
  70.0549340  91.5072590  54.3134680  69.3300520  90.8420660  55.4640950
  73.1354190  96.6065750  58.8513820  72.7597790  95.8393680  58.4195110
  72.4057310  96.9888450  59.3388750  57.7249950  97.2852890  65.4722870
  58.0922990  97.1980290  66.3518890  57.1560770  96.5219440  65.3729730
  55.9012100  94.1099250  56.8744860  54.9976180  94.3729450  56.6996520
  56.3852720  94.3810420  56.0944820  72.4105150  94.8323240  62.1521060
  72.9342630  94.3385890  61.5211230  72.9964570  94.9673600  62.8968630
  72.5894870  94.9163110  65.6740610  71.6397580  94.8826650  65.7885600
  72.7707880  95.8263220  65.4390380  58.4439310  93.1664790  54.7839240
  59.1531010  92.7448010  54.2986520  57.7279250  93.2340020  54.1522590
  58.0913470  89.2204120  53.8241890  58.8141600  89.7613060  54.1423110
  58.3637990  88.9467540  52.9483430  71.9005120  94.0896590  58.0913470
  72.3964240  93.8567460  58.8762350  71.7021190  93.2508430  57.6751110
  57.7805660  88.4710310  63.7264510  58.4281850  87.9207690  63.2859670
  58.2007500  88.7253460  64.5480320  73.3292280  92.7257540  60.6251150
  73.2191560  92.5713580  61.5633420  74.0899870  92.1978480  60.3826560
  71.6758000  88.6651670  67.0834150  72.3130220  89.2785810  67.4493340
  71.8232890  88.7012330  66.1383380  74.2182550  90.5565460  53.8657290
  75.1431860  90.4246640  53.6575580  74.1958340  90.6358280  54.8193740
  74.2921040  91.3276120  56.4914000  73.4972540  91.2621240  57.0206910
  74.4964320  92.2626760  56.4799350  57.5337660  88.6265980  66.4689830
  57.1852480  89.0829800  67.2348010  57.2025360  87.7323110  66.5512260
  68.4245080  88.0380060  65.9570830  67.5504920  88.3715170  65.7543760
  68.3155830  87.5653240  66.7822700  69.3317060  90.2450930  67.3412550
  69.0030420  89.4302690  66.9614280  70.2799360  90.2020740  67.2178240
  66.1719900  88.9549900  64.8963740  65.3891690  89.4295400  65.1760500
  65.8782830  88.0504730  64.7876920  70.7240970  89.6573000  62.9412830
  71.1649060  89.6018100  62.0934430  70.4548560  90.5731010  63.0123010
  72.5879540  89.2888240  60.9521650  72.5267940  88.3449460  60.8052670
  73.3671570  89.3968330  61.4975110  57.5160310  89.2597380  57.4177460
  58.2739670  89.3726260  56.8441490  57.0537480  90.0966580  57.3720890
  64.0574120  91.3736650  60.4079770  63.2448630  90.9993540  60.0675650
  64.5615760  90.6181730  60.7100960  68.5599100  88.0379100  61.6462840
  69.1628470  88.6099310  62.1211360  67.8192090  88.6018540  61.4236740
  71.7033700  88.4400660  56.9203120  71.8984330  89.3384110  57.1870550
  70.9163570  88.2087740  57.4136070  59.8885460  89.7861430  55.9579430
  60.4178220  88.9991230  55.8287380  60.5213780  90.4652620  56.1914960
  62.0823300  89.5236570  59.0124820  61.4526040  88.8223880  59.1794950
  61.5428440  90.2840700  58.7957980  67.7152470  96.2366600  42.3892520
  67.6346520  95.3221210  42.1184230  67.3016890  96.7333670  41.6832230
  65.8470510  98.0145620  44.2701790  65.0712610  97.5346060  44.5600360
  66.4983440  97.3351270  44.0957950  59.8636340  98.3265430  45.1477550
  59.0321220  98.0714140  45.5474060  60.4717320  98.3976200  45.8835470
  58.2728290  93.2867320  38.9319940  57.3844990  93.6283290  38.8299820
  58.5569480  93.0867640  38.0400770  56.2361300  95.8872970  44.8159640
  56.8077410  95.1195170  44.8163280  56.2362840  96.1861730  43.9066250
  57.4786170  91.2957330  46.6028570  57.2989010  90.3983080  46.8831330
  57.0766250  91.8429200  47.2775520  66.3184670  93.4973190  44.5040880
  66.6949490  92.6245070  44.3914550  66.2204180  93.8331890  43.6131320
  60.4489680  91.8698820  39.9658320  60.5556430  92.7702550  40.2727080
  59.5382040  91.8216790  39.6752970  70.1008790  90.9923630  41.4369220
  70.9218410  90.5020200  41.4794700  70.1342870  91.5821290  42.1901060
  58.0972840  93.7917830  45.2110910  58.7782950  94.0556200  45.8298310
  57.7820890  92.9518700  45.5448920  62.2897410  94.8385190  44.2983500
  62.7975630  95.3366160  44.9388520  62.8210650  94.0620390  44.1222860
  74.3908340  93.0090380  48.0012850  73.6860510  93.3972090  47.4827960
  74.6566260  93.7040670  48.6033780  60.5733510  89.4783750  48.5646920
  60.5751950  89.9956140  47.7592820  59.7437820  89.0013930  48.5416850
  70.3370270  92.9324010  44.2096760  69.6325840  93.2208900  44.7899870
  70.6982430  93.7424120  43.8496320  60.2548840  91.1893710  46.5717370
  60.5965650  92.0335760  46.2771240  59.3164650  91.3377450  46.6882710
  73.4057190  92.3778800  44.6005970  72.4582100  92.4117780  44.7321400
  73.7307180  93.1917750  44.9855330  63.9376730  88.6775980  42.8961960
  64.2451710  88.1222870  42.1797460  63.0077430  88.8120440  42.7134950
  66.3257490  96.7424810  39.6322080  65.3986770  96.6762190  39.8610550
  66.4782310  97.6804940  39.5177320  66.3126570  93.0141810  36.6289240
  65.3730240  93.1755770  36.7141700  66.6309830  93.7327490  36.0825230
  72.8339330  97.6960330  46.6068270  72.0057960  97.7653420  46.1318400
  73.4289810  98.2814640  46.1384100  70.3554780  98.3045110  40.1357330
  69.7367200  97.9664660  39.4883630  70.3379230  97.6604870  40.8436520
  69.7981340  94.4829650  47.5523140  69.3852520  95.3083360  47.8063130
  69.0657290  93.8974690  47.3599500  61.9314130  97.2689550  42.4141810
  61.5271130  96.5566800  41.9187710  62.0177250  96.9242790  43.3029850
  60.6442750  94.0432760  46.1940850  61.1957340  94.1528100  45.4194100
  61.1586260  94.4170360  46.9096080  68.5319480  97.5431920  37.1430080
  68.9712760  96.7054350  36.9967900  69.2447900  98.1761320  37.2294220
  60.3185480  97.5652120  49.8046190  60.1793250  98.4374920  50.1733590
  59.4366840  97.2224930  49.6594130  72.1136620  88.7974730  35.4571120
  71.8009280  88.8901560  36.3570190  72.8749090  89.3755760  35.4068550
  58.6318760  96.1634530  39.9148460  58.5116360  96.8896620  39.3029730
  58.3219650  95.3937440  39.4376370  73.3237910  93.5346230  51.4345260
  72.7082180  94.0425900  50.9060720  73.0034330  92.6344560  51.3771200
  61.0982420  89.5069600  43.2972130  60.6550570  90.2879140  42.9656650
  61.6567410  89.8299490  44.0043070  65.3852230  92.3738120  48.9007450
  64.9231600  92.5821140  49.7127390  64.9830340  91.5597470  48.5978120
  70.3856740  93.5947070  50.0304110  69.5350330  93.2952820  50.3513180
  70.2258530  93.8389080  49.1187930  67.4806450  95.0948820  52.1302900
  67.8059860  94.2612570  51.7905130  68.2686780  95.6177340  52.2781230
  64.2141240  89.1280300  38.1777960  63.5895420  89.1240170  38.9031270
  64.1271360  88.2611260  37.7813930  63.1358320  90.0516930  45.1561730
  63.4330650  90.9579760  45.0753750  63.6843880  89.5635710  44.5421300
  60.8896640  94.6303170  41.0253380  60.6637560  94.4140340  41.9300000
  60.1089170  95.0631630  40.6799350  68.1194400  94.6366540  39.6244030
  67.5203290  95.3602340  39.4407650  68.6674010  94.5743320  38.8420480
  63.3295850  95.5288750  51.6913650  63.2339450  94.5883480  51.5414050
  64.1727830  95.7503820  51.2961720  66.7259270  93.2730080  41.6547310
  67.1188840  93.5902280  40.8416000  67.0876120  92.3941960  41.7691830
  58.4606390  91.9402420  49.8447430  58.0669780  92.7877630  50.0520210
  57.7724790  91.3028790  50.0356070  65.0351440  92.0237390  52.9144170
  64.3449760  91.8309590  53.5490260  65.7783740  92.3072030  53.4468470
  55.7623440  89.8630880  43.8777510  55.4736490  90.4333740  44.5902490
  56.5069200  89.3835330  44.2408740  55.9493670  93.8051000  35.0880230
  55.8668340  94.7481760  35.2295220  55.5976730  93.6625910  34.2092580
  67.3114410  95.8635830  45.7498090  66.5795530  96.3722640  46.0988190
  66.9138750  95.0465810  45.4486870  63.7491800  92.5390030  44.1550580
  63.7527860  92.0979980  43.3055120  64.6442920  92.8607360  44.2622400
  59.5994180  92.4216520  43.1144790  59.2594230  92.8991750  43.8711840
  58.8371500  91.9681640  42.7545890  63.8111950  93.5402110  37.1457340
  63.9324770  93.4988590  38.0943160  63.4260460  94.4026260  36.9904070
  67.7740320  91.3169510  45.1621030  67.7913060  91.7678160  46.0062880
  67.5255900  90.4175150  45.3754470  62.8233450  95.8503250  36.5440640
  62.2550350  95.4021500  35.9176550  63.5322450  96.2096030  36.0105790
  71.2011070  88.7301690  51.0007410  71.5256840  87.9991350  51.5265390
  71.2367580  88.4115330  50.0988400  64.0499770  96.5991810  45.9015990
  64.4169900  96.1250380  46.6477330  63.8604830  97.4733380  46.2424330
  56.9140260  91.3435500  42.0309460  56.6287180  90.9791170  42.8688080
  56.8519120  90.6115960  41.4172600  61.8399140  95.6400450  48.2200200
  61.5356210  96.5192430  48.4450560  62.7945600  95.7000240  48.2557640
  66.5878850  90.2364760  38.7522830  65.7743460  89.7377930  38.6768140
  66.3940800  91.0763010  38.3359180  69.3027240  94.6084410  37.0484990
  70.1906860  94.9201640  36.8736330  69.2732330  93.7356660  36.6565570
  57.8962870  96.4803190  49.3671560  57.5377810  97.1457040  49.9544900
  57.6017430  95.6486740  49.7384180  61.0975990  96.9387430  52.2511110
  60.7976130  97.0844610  51.3538930  61.8687230  96.3792720  52.1584500
  71.5741510  95.9196250  36.5164850  71.4905230  96.3510470  35.6661290
  72.2935700  96.3794600  36.9491670  56.4070920  96.4794450  35.9906160
  57.2765770  96.7619250  36.2742080  55.9161240  97.2930320  35.8754970
  63.5705730  97.8667660  40.1114440  64.0268510  98.6772910  40.3374630
  63.2193940  97.5490800  40.9432930  59.4717510  88.2105310  40.5836960
  59.3432140  88.2023210  41.5321880  58.6479530  88.5488400  40.2327970
  56.4711440  89.9696430  50.0443660  55.7569960  90.1693350  50.6496270
  56.8906480  89.1936000  50.4158460  67.9650220  92.4618740  47.7945110
  68.3331040  91.6413950  48.1224680  67.1048420  92.5220630  48.2100760
  71.3312250  91.4175680  38.6032670  70.7025410  91.5221350  37.8890900
  70.8364170  91.6372460  39.3926550  63.2996280  93.6961630  40.0190550
  62.5912430  94.1647970  40.4604160  63.5840760  93.0383640  40.6535740
  64.9252210  95.1158330  48.0183080  65.4237460  95.5904150  48.6834930
  65.0675160  94.1921850  48.2253110  67.3311710  90.4212290  41.4586340
  67.2079490  90.4398420  40.5095850  68.2796270  90.4691230  41.5784740
  61.5031300  92.0046710  37.3941260  62.3521830  92.4416860  37.3281450
  61.1362570  92.3166970  38.2213320  72.1319070  91.3326290  48.8611470
  71.6292670  92.0731690  49.2005280  72.9475730  91.7210290  48.5448260
  70.4241080  96.5759470  42.3072830  69.4831220  96.5909700  42.4820520
  70.7385150  95.7895430  42.7533130  60.4022720  98.2579070  35.8676790
  61.1685990  98.1460430  36.4302220  60.4797410  97.5617040  35.2153560
  59.0969480  95.6904140  36.5509680  59.1773070  94.7431650  36.6627080
  59.9889230  96.0211020  36.6570340  56.6240280  97.5119060  51.7865850
  57.1279300  96.9326340  52.3582080  55.8847700  97.7959290  52.3242220
  58.6563360  95.6548650  52.6815920  58.6968700  95.3562520  53.5901150
  59.5108860  96.0556260  52.5223440  62.4341750  98.2544200  37.8419430
  62.8558170  98.0884070  38.6850820  62.5592590  97.4444430  37.3474570
  60.5969170  94.2340750  50.6490410  60.0665630  93.7431700  50.0213750
  61.2657240  94.6624950  50.1148340  64.9469390  97.2781810  35.0896530
  65.4675050  96.5630830  34.7237680  65.5937790  97.9167680  35.3897040
  69.9669400  96.0406370  52.4170750  70.5490170  95.2858690  52.3291230
  70.1431170  96.5713810  51.6402230  61.0841470  91.2003120  50.7287700
  60.9898340  90.5823870  50.0038570  60.5038860  91.9269410  50.5017610
  63.8502910  89.7576360  47.7615090  63.4020210  89.7800620  46.9160640
  63.2168110  89.3595380  48.3585390  66.5926360  96.3846870  49.7665370
  66.7122570  95.7888010  50.5060210  67.4520360  96.4216560  49.3466670
  68.9314260  96.9384060  48.3427880  68.4049480  97.4626680  47.7393020
  69.2745600  97.5711450  48.9737610  61.3300650  94.3277430  34.7877590
  61.1289710  93.4644790  35.1490930  61.1592700  94.2410790  33.8499190
  63.3595130  92.9268220  51.0241190  63.9494820  92.6184070  51.7119010
  62.5415370  92.4547970  51.1801090  68.1788560  92.5434030  51.2574210
  67.4904080  91.8815570  51.1924200  68.8994580  92.0972300  51.7022670
  68.8088960  89.1385660  37.3164470  69.0891250  88.2953560  37.6723890
  68.0354690  89.3708770  37.8303220  60.1283450  91.4278050  34.7755470
  60.4309350  91.4345480  33.8674620  60.8678040  91.0775910  35.2723130
  63.3468380  90.3712670  35.7611670  62.9990380  89.6936660  35.1814120
  63.5481150  89.9102180  36.5755060  56.6874020  96.9000320  42.1576040
  56.0322860  96.6311960  41.5135740  57.5251970  96.7904800  41.7078020
  69.6364460  91.6941610  36.3794530  70.0549340  91.5072590  35.5391190
  69.3300520  90.8420660  36.6897460  73.1354190  96.6065750  40.0770330
  72.7597790  95.8393680  39.6451620  72.4057310  96.9888450  40.5645260
  57.7249950  97.2852890  46.6979380  58.0922990  97.1980290  47.5775400
  57.1560770  96.5219440  46.5986240  72.5253810  95.7537270  49.7109850
  72.2939900  95.5250020  48.8107800  72.7858360  96.6736820  49.6654740
  57.2765950  94.1961980  50.6037800  56.3822000  94.1628740  50.9431510
  57.8163500  94.3948770  51.3689050  70.9641880  90.9793700  52.4889550
  71.8412060  90.9877100  52.8723550  70.9762720  90.2424540  51.8781900
  55.9012100  94.1099250  38.1001370  54.9976180  94.3729450  37.9253030
  56.3852720  94.3810420  37.3201330  72.4105150  94.8323240  43.3777570
  72.9342630  94.3385890  42.7467740  72.9964570  94.9673600  44.1225140
  72.5894870  94.9163110  46.8997120  71.6397580  94.8826650  47.0142110
  72.7707880  95.8263220  46.6646890  58.4439310  93.1664790  36.0095750
  59.1531010  92.7448010  35.5243030  57.7279250  93.2340020  35.3779100
  58.0913470  89.2204120  35.0498400  58.8141600  89.7613060  35.3679620
  58.3637990  88.9467540  34.1739940  71.9005120  94.0896590  39.3169980
  72.3964240  93.8567460  40.1018860  71.7021190  93.2508430  38.9007620
  57.7805660  88.4710310  44.9521020  58.4281850  87.9207690  44.5116180
  58.2007500  88.7253460  45.7736830  73.3292280  92.7257540  41.8507660
  73.2191560  92.5713580  42.7889930  74.0899870  92.1978480  41.6083070
  71.6758000  88.6651670  48.3090660  72.3130220  89.2785810  48.6749850
  71.8232890  88.7012330  47.3639890  74.2182550  90.5565460  35.0913800
  75.1431860  90.4246640  34.8832090  74.1958340  90.6358280  36.0450250
  74.2921040  91.3276120  37.7170510  73.4972540  91.2621240  38.2463420
  74.4964320  92.2626760  37.7055860  57.5337660  88.6265980  47.6946340
  57.1852480  89.0829800  48.4604520  57.2025360  87.7323110  47.7768770
  65.0462480  89.8177860  51.2165760  64.9851370  90.4099690  51.9661170
  65.9862860  89.7103820  51.0716020  67.6837040  89.4747920  50.8558050
  68.2977450  89.7927210  50.1939130  68.2286600  88.9896510  51.4753910
  58.2058300  88.1542180  50.9697110  58.7541290  87.9730230  50.2063220
  58.2713610  87.3636290  51.5053420  68.4245080  88.0380060  47.1827340
  67.5504920  88.3715170  46.9800270  68.3155830  87.5653240  48.0079210
  69.3317060  90.2450930  48.5669060  69.0030420  89.4302690  48.1870790
  70.2799360  90.2020740  48.4434750  66.1719900  88.9549900  46.1220250
  65.3891690  89.4295400  46.4017010  65.8782830  88.0504730  46.0133430
  70.7240970  89.6573000  44.1669340  71.1649060  89.6018100  43.3190940
  70.4548560  90.5731010  44.2379520  72.5879540  89.2888240  42.1778160
  72.5267940  88.3449460  42.0309180  73.3671570  89.3968330  42.7231620
  57.5160310  89.2597380  38.6433970  58.2739670  89.3726260  38.0698000
  57.0537480  90.0966580  38.5977400  64.0574120  91.3736650  41.6336280
  63.2448630  90.9993540  41.2932160  64.5615760  90.6181730  41.9357470
  68.5599100  88.0379100  42.8719350  69.1628470  88.6099310  43.3467870
  67.8192090  88.6018540  42.6493250  71.7033700  88.4400660  38.1459630
  71.8984330  89.3384110  38.4127060  70.9163570  88.2087740  38.6392580
  59.8885460  89.7861430  37.1835940  60.4178220  88.9991230  37.0543890
  60.5213780  90.4652620  37.4171470  62.0823300  89.5236570  40.2381330
  61.4526040  88.8223880  40.4051460  61.5428440  90.2840700  40.0214490
  62.2078860  88.8020550  52.6733820  61.9263130  89.3054150  51.9094640
  62.5898560  88.0042300  52.3075950  68.8094320  88.2174130  53.2514290
  68.6959770  88.5368740  54.1465810  69.6264060  88.6186640  52.9551570
  67.7152470  96.2366600  23.6149030  67.6346520  95.3221210  23.3440740
  67.3016890  96.7333670  22.9088740  65.8470510  98.0145620  25.4958300
  65.0712610  97.5346060  25.7856870  66.4983440  97.3351270  25.3214460
  59.8636340  98.3265430  26.3734060  59.0321220  98.0714140  26.7730570
  60.4717320  98.3976200  27.1091980  58.2728290  93.2867320  20.1576450
  57.3844990  93.6283290  20.0556330  58.5569480  93.0867640  19.2657280
  56.2361300  95.8872970  26.0416150  56.8077410  95.1195170  26.0419790
  56.2362840  96.1861730  25.1322760  57.4786170  91.2957330  27.8285080
  57.2989010  90.3983080  28.1087840  57.0766250  91.8429200  28.5032030
  66.3184670  93.4973190  25.7297390  66.6949490  92.6245070  25.6171060
  66.2204180  93.8331890  24.8387830  60.4489680  91.8698820  21.1914830
  60.5556430  92.7702550  21.4983590  59.5382040  91.8216790  20.9009480
  70.1008790  90.9923630  22.6625730  70.9218410  90.5020200  22.7051210
  70.1342870  91.5821290  23.4157570  58.0972840  93.7917830  26.4367420
  58.7782950  94.0556200  27.0554820  57.7820890  92.9518700  26.7705430
  62.2897410  94.8385190  25.5240010  62.7975630  95.3366160  26.1645030
  62.8210650  94.0620390  25.3479370  74.3908340  93.0090380  29.2269360
  73.6860510  93.3972090  28.7084470  74.6566260  93.7040670  29.8290290
  60.5733510  89.4783750  29.7903430  60.5751950  89.9956140  28.9849330
  59.7437820  89.0013930  29.7673360  70.3370270  92.9324010  25.4353270
  69.6325840  93.2208900  26.0156380  70.6982430  93.7424120  25.0752830
  60.2548840  91.1893710  27.7973880  60.5965650  92.0335760  27.5027750
  59.3164650  91.3377450  27.9139220  73.4057190  92.3778800  25.8262480
  72.4582100  92.4117780  25.9577910  73.7307180  93.1917750  26.2111840
  63.9376730  88.6775980  24.1218470  64.2451710  88.1222870  23.4053970
  63.0077430  88.8120440  23.9391460  66.3257490  96.7424810  20.8578590
  65.3986770  96.6762190  21.0867060  66.4782310  97.6804940  20.7433830
  66.3126570  93.0141810  17.8545750  65.3730240  93.1755770  17.9398210
  66.6309830  93.7327490  17.3081740  72.8339330  97.6960330  27.8324780
  72.0057960  97.7653420  27.3574910  73.4289810  98.2814640  27.3640610
  70.3554780  98.3045110  21.3613840  69.7367200  97.9664660  20.7140140
  70.3379230  97.6604870  22.0693030  69.7981340  94.4829650  28.7779650
  69.3852520  95.3083360  29.0319640  69.0657290  93.8974690  28.5856010
  61.9314130  97.2689550  23.6398320  61.5271130  96.5566800  23.1444220
  62.0177250  96.9242790  24.5286360  60.6442750  94.0432760  27.4197360
  61.1957340  94.1528100  26.6450610  61.1586260  94.4170360  28.1352590
  68.5319480  97.5431920  18.3686590  68.9712760  96.7054350  18.2224410
  69.2447900  98.1761320  18.4550730  60.3185480  97.5652120  31.0302700
  60.1793250  98.4374920  31.3990100  59.4366840  97.2224930  30.8850640
  72.1136620  88.7974730  16.6827630  71.8009280  88.8901560  17.5826700
  72.8749090  89.3755760  16.6325060  58.6318760  96.1634530  21.1404970
  58.5116360  96.8896620  20.5286240  58.3219650  95.3937440  20.6632880
  73.3237910  93.5346230  32.6601770  72.7082180  94.0425900  32.1317230
  73.0034330  92.6344560  32.6027710  61.0982420  89.5069600  24.5228640
  60.6550570  90.2879140  24.1913160  61.6567410  89.8299490  25.2299580
  65.3852230  92.3738120  30.1263960  64.9231600  92.5821140  30.9383900
  64.9830340  91.5597470  29.8234630  70.3856740  93.5947070  31.2560620
  69.5350330  93.2952820  31.5769690  70.2258530  93.8389080  30.3444440
  67.4806450  95.0948820  33.3559410  67.8059860  94.2612570  33.0161640
  68.2686780  95.6177340  33.5037740  64.2141240  89.1280300  19.4034470
  63.5895420  89.1240170  20.1287780  64.1271360  88.2611260  19.0070440
  63.1358320  90.0516930  26.3818240  63.4330650  90.9579760  26.3010260
  63.6843880  89.5635710  25.7677810  60.8896640  94.6303170  22.2509890
  60.6637560  94.4140340  23.1556510  60.1089170  95.0631630  21.9055860
  68.1194400  94.6366540  20.8500540  67.5203290  95.3602340  20.6664160
  68.6674010  94.5743320  20.0676990  63.3295850  95.5288750  32.9170160
  63.2339450  94.5883480  32.7670560  64.1727830  95.7503820  32.5218230
  66.7259270  93.2730080  22.8803820  67.1188840  93.5902280  22.0672510
  67.0876120  92.3941960  22.9948340  58.4606390  91.9402420  31.0703940
  58.0669780  92.7877630  31.2776720  57.7724790  91.3028790  31.2612580
  65.0351440  92.0237390  34.1400680  64.3449760  91.8309590  34.7746770
  65.7783740  92.3072030  34.6724980  55.7623440  89.8630880  25.1034020
  55.4736490  90.4333740  25.8159000  56.5069200  89.3835330  25.4665250
  55.9493670  93.8051000  16.3136740  55.8668340  94.7481760  16.4551730
  55.5976730  93.6625910  15.4349090  67.3114410  95.8635830  26.9754600
  66.5795530  96.3722640  27.3244700  66.9138750  95.0465810  26.6743380
  63.7491800  92.5390030  25.3807090  63.7527860  92.0979980  24.5311630
  64.6442920  92.8607360  25.4878910  59.5994180  92.4216520  24.3401300
  59.2594230  92.8991750  25.0968350  58.8371500  91.9681640  23.9802400
  63.8111950  93.5402110  18.3713850  63.9324770  93.4988590  19.3199670
  63.4260460  94.4026260  18.2160580  67.7740320  91.3169510  26.3877540
  67.7913060  91.7678160  27.2319390  67.5255900  90.4175150  26.6010980
  62.8233450  95.8503250  17.7697150  62.2550350  95.4021500  17.1433060
  63.5322450  96.2096030  17.2362300  71.2011070  88.7301690  32.2263920
  71.5256840  87.9991350  32.7521900  71.2367580  88.4115330  31.3244910
  64.0499770  96.5991810  27.1272500  64.4169900  96.1250380  27.8733840
  63.8604830  97.4733380  27.4680840  56.9140260  91.3435500  23.2565970
  56.6287180  90.9791170  24.0944590  56.8519120  90.6115960  22.6429110
  61.8399140  95.6400450  29.4456710  61.5356210  96.5192430  29.6707070
  62.7945600  95.7000240  29.4814150  66.5878850  90.2364760  19.9779340
  65.7743460  89.7377930  19.9024650  66.3940800  91.0763010  19.5615690
  69.3027240  94.6084410  18.2741500  70.1906860  94.9201640  18.0992840
  69.2732330  93.7356660  17.8822080  57.8962870  96.4803190  30.5928070
  57.5377810  97.1457040  31.1801410  57.6017430  95.6486740  30.9640690
  61.0975990  96.9387430  33.4767620  60.7976130  97.0844610  32.5795440
  61.8687230  96.3792720  33.3841010  71.5741510  95.9196250  17.7421360
  71.4905230  96.3510470  16.8917800  72.2935700  96.3794600  18.1748180
  56.4070920  96.4794450  17.2162670  57.2765770  96.7619250  17.4998590
  55.9161240  97.2930320  17.1011480  63.5705730  97.8667660  21.3370950
  64.0268510  98.6772910  21.5631140  63.2193940  97.5490800  22.1689440
  59.4717510  88.2105310  21.8093470  59.3432140  88.2023210  22.7578390
  58.6479530  88.5488400  21.4584480  56.4711440  89.9696430  31.2700170
  55.7569960  90.1693350  31.8752780  56.8906480  89.1936000  31.6414970
  67.9650220  92.4618740  29.0201620  68.3331040  91.6413950  29.3481190
  67.1048420  92.5220630  29.4357270  71.3312250  91.4175680  19.8289180
  70.7025410  91.5221350  19.1147410  70.8364170  91.6372460  20.6183060
  63.2996280  93.6961630  21.2447060  62.5912430  94.1647970  21.6860670
  63.5840760  93.0383640  21.8792250  64.9252210  95.1158330  29.2439590
  65.4237460  95.5904150  29.9091440  65.0675160  94.1921850  29.4509620
  67.3311710  90.4212290  22.6842850  67.2079490  90.4398420  21.7352360
  68.2796270  90.4691230  22.8041250  61.5031300  92.0046710  18.6197770
  62.3521830  92.4416860  18.5537960  61.1362570  92.3166970  19.4469830
  72.1319070  91.3326290  30.0867980  71.6292670  92.0731690  30.4261790
  72.9475730  91.7210290  29.7704770  70.4241080  96.5759470  23.5329340
  69.4831220  96.5909700  23.7077030  70.7385150  95.7895430  23.9789640
  60.4022720  98.2579070  17.0933300  61.1685990  98.1460430  17.6558730
  60.4797410  97.5617040  16.4410070  59.0969480  95.6904140  17.7766190
  59.1773070  94.7431650  17.8883590  59.9889230  96.0211020  17.8826850
  56.6240280  97.5119060  33.0122360  57.1279300  96.9326340  33.5838590
  55.8847700  97.7959290  33.5498730  58.6563360  95.6548650  33.9072430
  58.6968700  95.3562520  34.8157660  59.5108860  96.0556260  33.7479950
  62.4341750  98.2544200  19.0675940  62.8558170  98.0884070  19.9107330
  62.5592590  97.4444430  18.5731080  60.5969170  94.2340750  31.8746920
  60.0665630  93.7431700  31.2470260  61.2657240  94.6624950  31.3404850
  64.9469390  97.2781810  16.3153040  65.4675050  96.5630830  15.9494190
  65.5937790  97.9167680  16.6153550  69.9669400  96.0406370  33.6427260
  70.5490170  95.2858690  33.5547740  70.1431170  96.5713810  32.8658740
  61.0841470  91.2003120  31.9544210  60.9898340  90.5823870  31.2295080
  60.5038860  91.9269410  31.7274120  63.8502910  89.7576360  28.9871600
  63.4020210  89.7800620  28.1417150  63.2168110  89.3595380  29.5841900
  66.5926360  96.3846870  30.9921880  66.7122570  95.7888010  31.7316720
  67.4520360  96.4216560  30.5723180  68.9314260  96.9384060  29.5684390
  68.4049480  97.4626680  28.9649530  69.2745600  97.5711450  30.1994120
  61.3300650  94.3277430  16.0134100  61.1289710  93.4644790  16.3747440
  61.1592700  94.2410790  15.0755700  63.3595130  92.9268220  32.2497700
  63.9494820  92.6184070  32.9375520  62.5415370  92.4547970  32.4057600
  68.1788560  92.5434030  32.4830720  67.4904080  91.8815570  32.4180710
  68.8994580  92.0972300  32.9279180  68.8088960  89.1385660  18.5420980
  69.0891250  88.2953560  18.8980400  68.0354690  89.3708770  19.0559730
  60.1283450  91.4278050  16.0011980  60.4309350  91.4345480  15.0931130
  60.8678040  91.0775910  16.4979640  63.3468380  90.3712670  16.9868180
  62.9990380  89.6936660  16.4070630  63.5481150  89.9102180  17.8011570
  56.6874020  96.9000320  23.3832550  56.0322860  96.6311960  22.7392250
  57.5251970  96.7904800  22.9334530  69.6364460  91.6941610  17.6051040
  70.0549340  91.5072590  16.7647700  69.3300520  90.8420660  17.9153970
  73.1354190  96.6065750  21.3026840  72.7597790  95.8393680  20.8708130
  72.4057310  96.9888450  21.7901770  57.7249950  97.2852890  27.9235890
  58.0922990  97.1980290  28.8031910  57.1560770  96.5219440  27.8242750
  72.5253810  95.7537270  30.9366360  72.2939900  95.5250020  30.0364310
  72.7858360  96.6736820  30.8911250  57.2765950  94.1961980  31.8294310
  56.3822000  94.1628740  32.1688020  57.8163500  94.3948770  32.5945560
  70.9641880  90.9793700  33.7146060  71.8412060  90.9877100  34.0980060
  70.9762720  90.2424540  33.1038410  55.9012100  94.1099250  19.3257880
  54.9976180  94.3729450  19.1509540  56.3852720  94.3810420  18.5457840
  72.4105150  94.8323240  24.6034080  72.9342630  94.3385890  23.9724250
  72.9964570  94.9673600  25.3481650  72.5894870  94.9163110  28.1253630
  71.6397580  94.8826650  28.2398620  72.7707880  95.8263220  27.8903400
  58.4439310  93.1664790  17.2352260  59.1531010  92.7448010  16.7499540
  57.7279250  93.2340020  16.6035610  58.0913470  89.2204120  16.2754910
  58.8141600  89.7613060  16.5936130  58.3637990  88.9467540  15.3996450
  71.9005120  94.0896590  20.5426490  72.3964240  93.8567460  21.3275370
  71.7021190  93.2508430  20.1264130  57.7805660  88.4710310  26.1777530
  58.4281850  87.9207690  25.7372690  58.2007500  88.7253460  26.9993340
  73.3292280  92.7257540  23.0764170  73.2191560  92.5713580  24.0146440
  74.0899870  92.1978480  22.8339580  71.6758000  88.6651670  29.5347170
  72.3130220  89.2785810  29.9006360  71.8232890  88.7012330  28.5896400
  74.2182550  90.5565460  16.3170310  75.1431860  90.4246640  16.1088600
  74.1958340  90.6358280  17.2706760  74.2921040  91.3276120  18.9427020
  73.4972540  91.2621240  19.4719930  74.4964320  92.2626760  18.9312370
  57.5337660  88.6265980  28.9202850  57.1852480  89.0829800  29.6861030
  57.2025360  87.7323110  29.0025280  65.0462480  89.8177860  32.4422270
  64.9851370  90.4099690  33.1917680  65.9862860  89.7103820  32.2972530
  67.6837040  89.4747920  32.0814560  68.2977450  89.7927210  31.4195640
  68.2286600  88.9896510  32.7010420  58.2058300  88.1542180  32.1953620
  58.7541290  87.9730230  31.4319730  58.2713610  87.3636290  32.7309930
  68.4245080  88.0380060  28.4083850  67.5504920  88.3715170  28.2056780
  68.3155830  87.5653240  29.2335720  69.3317060  90.2450930  29.7925570
  69.0030420  89.4302690  29.4127300  70.2799360  90.2020740  29.6691260
  66.1719900  88.9549900  27.3476760  65.3891690  89.4295400  27.6273520
  65.8782830  88.0504730  27.2389940  70.7240970  89.6573000  25.3925850
  71.1649060  89.6018100  24.5447450  70.4548560  90.5731010  25.4636030
  72.5879540  89.2888240  23.4034670  72.5267940  88.3449460  23.2565690
  73.3671570  89.3968330  23.9488130  57.5160310  89.2597380  19.8690480
  58.2739670  89.3726260  19.2954510  57.0537480  90.0966580  19.8233910
  64.0574120  91.3736650  22.8592790  63.2448630  90.9993540  22.5188670
  64.5615760  90.6181730  23.1613980  68.5599100  88.0379100  24.0975860
  69.1628470  88.6099310  24.5724380  67.8192090  88.6018540  23.8749760
  71.7033700  88.4400660  19.3716140  71.8984330  89.3384110  19.6383570
  70.9163570  88.2087740  19.8649090  59.8885460  89.7861430  18.4092450
  60.4178220  88.9991230  18.2800400  60.5213780  90.4652620  18.6427980
  62.0823300  89.5236570  21.4637840  61.4526040  88.8223880  21.6307970
  61.5428440  90.2840700  21.2471000  62.2078860  88.8020550  33.8990330
  61.9263130  89.3054150  33.1351150  62.5898560  88.0042300  33.5332460
  68.8094320  88.2174130  34.4770800  68.6959770  88.5368740  35.3722320
  69.6264060  88.6186640  34.1808080  67.7152470  96.2366600   4.8405540
  67.6346520  95.3221210   4.5697250  67.3016890  96.7333670   4.1345250
  65.8470510  98.0145620   6.7214810  65.0712610  97.5346060   7.0113380
  66.4983440  97.3351270   6.5470970  59.8636340  98.3265430   7.5990570
  59.0321220  98.0714140   7.9987080  60.4717320  98.3976200   8.3348490
  56.2361300  95.8872970   7.2672660  56.8077410  95.1195170   7.2676300
  56.2362840  96.1861730   6.3579270  57.4786170  91.2957330   9.0541590
  57.2989010  90.3983080   9.3344350  57.0766250  91.8429200   9.7288540
  66.3184670  93.4973190   6.9553900  66.6949490  92.6245070   6.8427570
  66.2204180  93.8331890   6.0644340  60.4489680  91.8698820   2.4171340
  60.5556430  92.7702550   2.7240100  59.5382040  91.8216790   2.1265990
  70.1008790  90.9923630   3.8882240  70.9218410  90.5020200   3.9307720
  70.1342870  91.5821290   4.6414080  58.0972840  93.7917830   7.6623930
  58.7782950  94.0556200   8.2811330  57.7820890  92.9518700   7.9961940
  62.2897410  94.8385190   6.7496520  62.7975630  95.3366160   7.3901540
  62.8210650  94.0620390   6.5735880  74.3908340  93.0090380  10.4525870
  73.6860510  93.3972090   9.9340980  74.6566260  93.7040670  11.0546800
  60.5733510  89.4783750  11.0159940  60.5751950  89.9956140  10.2105840
  59.7437820  89.0013930  10.9929870  70.3370270  92.9324010   6.6609780
  69.6325840  93.2208900   7.2412890  70.6982430  93.7424120   6.3009340
  60.2548840  91.1893710   9.0230390  60.5965650  92.0335760   8.7284260
  59.3164650  91.3377450   9.1395730  73.4057190  92.3778800   7.0518990
  72.4582100  92.4117780   7.1834420  73.7307180  93.1917750   7.4368350
  63.9376730  88.6775980   5.3474980  64.2451710  88.1222870   4.6310480
  63.0077430  88.8120440   5.1647970  66.3257490  96.7424810   2.0835100
  65.3986770  96.6762190   2.3123570  66.4782310  97.6804940   1.9690340
  72.8339330  97.6960330   9.0581290  72.0057960  97.7653420   8.5831420
  73.4289810  98.2814640   8.5897120  70.3554780  98.3045110   2.5870350
  69.7367200  97.9664660   1.9396650  70.3379230  97.6604870   3.2949540
  69.7981340  94.4829650  10.0036160  69.3852520  95.3083360  10.2576150
  69.0657290  93.8974690   9.8112520  61.9314130  97.2689550   4.8654830
  61.5271130  96.5566800   4.3700730  62.0177250  96.9242790   5.7542870
  60.6442750  94.0432760   8.6453870  61.1957340  94.1528100   7.8707120
  61.1586260  94.4170360   9.3609100  60.3185480  97.5652120  12.2559210
  60.1793250  98.4374920  12.6246610  59.4366840  97.2224930  12.1107150
  58.6318760  96.1634530   2.3661480  58.5116360  96.8896620   1.7542750
  58.3219650  95.3937440   1.8889390  73.3237910  93.5346230  13.8858280
  72.7082180  94.0425900  13.3573740  73.0034330  92.6344560  13.8284220
  61.0982420  89.5069600   5.7485150  60.6550570  90.2879140   5.4169670
  61.6567410  89.8299490   6.4556090  65.3852230  92.3738120  11.3520470
  64.9231600  92.5821140  12.1640410  64.9830340  91.5597470  11.0491140
  70.3856740  93.5947070  12.4817130  69.5350330  93.2952820  12.8026200
  70.2258530  93.8389080  11.5700950  67.4806450  95.0948820  14.5815920
  67.8059860  94.2612570  14.2418150  68.2686780  95.6177340  14.7294250
  63.1358320  90.0516930   7.6074750  63.4330650  90.9579760   7.5266770
  63.6843880  89.5635710   6.9934320  60.8896640  94.6303170   3.4766400
  60.6637560  94.4140340   4.3813020  60.1089170  95.0631630   3.1312370
  63.3295850  95.5288750  14.1426670  63.2339450  94.5883480  13.9927070
  64.1727830  95.7503820  13.7474740  66.7259270  93.2730080   4.1060330
  67.1188840  93.5902280   3.2929020  67.0876120  92.3941960   4.2204850
  58.4606390  91.9402420  12.2960450  58.0669780  92.7877630  12.5033230
  57.7724790  91.3028790  12.4869090  65.0351440  92.0237390  15.3657190
  64.3449760  91.8309590  16.0003280  65.7783740  92.3072030  15.8981490
  55.7623440  89.8630880   6.3290530  55.4736490  90.4333740   7.0415510
  56.5069200  89.3835330   6.6921760  67.3114410  95.8635830   8.2011110
  66.5795530  96.3722640   8.5501210  66.9138750  95.0465810   7.8999890
  63.7491800  92.5390030   6.6063600  63.7527860  92.0979980   5.7568140
  64.6442920  92.8607360   6.7135420  59.5994180  92.4216520   5.5657810
  59.2594230  92.8991750   6.3224860  58.8371500  91.9681640   5.2058910
  67.7740320  91.3169510   7.6134050  67.7913060  91.7678160   8.4575900
  67.5255900  90.4175150   7.8267490  71.2011070  88.7301690  13.4520430
  71.5256840  87.9991350  13.9778410  71.2367580  88.4115330  12.5501420
  64.0499770  96.5991810   8.3529010  64.4169900  96.1250380   9.0990350
  63.8604830  97.4733380   8.6937350  56.9140260  91.3435500   4.4822480
  56.6287180  90.9791170   5.3201100  56.8519120  90.6115960   3.8685620
  61.8399140  95.6400450  10.6713220  61.5356210  96.5192430  10.8963580
  62.7945600  95.7000240  10.7070660  57.8962870  96.4803190  11.8184580
  57.5377810  97.1457040  12.4057920  57.6017430  95.6486740  12.1897200
  61.0975990  96.9387430  14.7024130  60.7976130  97.0844610  13.8051950
  61.8687230  96.3792720  14.6097520  63.5705730  97.8667660   2.5627460
  64.0268510  98.6772910   2.7887650  63.2193940  97.5490800   3.3945950
  59.4717510  88.2105310   3.0349980  59.3432140  88.2023210   3.9834900
  58.6479530  88.5488400   2.6840990  56.4711440  89.9696430  12.4956680
  55.7569960  90.1693350  13.1009290  56.8906480  89.1936000  12.8671480
  67.9650220  92.4618740  10.2458130  68.3331040  91.6413950  10.5737700
  67.1048420  92.5220630  10.6613780  63.2996280  93.6961630   2.4703570
  62.5912430  94.1647970   2.9117180  63.5840760  93.0383640   3.1048760
  64.9252210  95.1158330  10.4696100  65.4237460  95.5904150  11.1347950
  65.0675160  94.1921850  10.6766130  67.3311710  90.4212290   3.9099360
  67.2079490  90.4398420   2.9608870  68.2796270  90.4691230   4.0297760
  72.1319070  91.3326290  11.3124490  71.6292670  92.0731690  11.6518300
  72.9475730  91.7210290  10.9961280  70.4241080  96.5759470   4.7585850
  69.4831220  96.5909700   4.9333540  70.7385150  95.7895430   5.2046150
  56.6240280  97.5119060  14.2378870  57.1279300  96.9326340  14.8095100
  55.8847700  97.7959290  14.7755240  58.6563360  95.6548650  15.1328940
  58.6968700  95.3562520  16.0414170  59.5108860  96.0556260  14.9736460
  60.5969170  94.2340750  13.1003430  60.0665630  93.7431700  12.4726770
  61.2657240  94.6624950  12.5661360  69.9669400  96.0406370  14.8683770
  70.5490170  95.2858690  14.7804250  70.1431170  96.5713810  14.0915250
  61.0841470  91.2003120  13.1800720  60.9898340  90.5823870  12.4551590
  60.5038860  91.9269410  12.9530630  63.8502910  89.7576360  10.2128110
  63.4020210  89.7800620   9.3673660  63.2168110  89.3595380  10.8098410
  66.5926360  96.3846870  12.2178390  66.7122570  95.7888010  12.9573230
  67.4520360  96.4216560  11.7979690  68.9314260  96.9384060  10.7940900
  68.4049480  97.4626680  10.1906040  69.2745600  97.5711450  11.4250630
  63.3595130  92.9268220  13.4754210  63.9494820  92.6184070  14.1632030
  62.5415370  92.4547970  13.6314110  68.1788560  92.5434030  13.7087230
  67.4904080  91.8815570  13.6437220  68.8994580  92.0972300  14.1535690
  56.6874020  96.9000320   4.6089060  56.0322860  96.6311960   3.9648760
  57.5251970  96.7904800   4.1591040  73.1354190  96.6065750   2.5283350
  72.7597790  95.8393680   2.0964640  72.4057310  96.9888450   3.0158280
  57.7249950  97.2852890   9.1492400  58.0922990  97.1980290  10.0288420
  57.1560770  96.5219440   9.0499260  72.5253810  95.7537270  12.1622870
  72.2939900  95.5250020  11.2620820  72.7858360  96.6736820  12.1167760
  57.2765950  94.1961980  13.0550820  56.3822000  94.1628740  13.3944530
  57.8163500  94.3948770  13.8202070  70.9641880  90.9793700  14.9402570
  71.8412060  90.9877100  15.3236570  70.9762720  90.2424540  14.3294920
  72.4105150  94.8323240   5.8290590  72.9342630  94.3385890   5.1980760
  72.9964570  94.9673600   6.5738160  72.5894870  94.9163110   9.3510140
  71.6397580  94.8826650   9.4655130  72.7707880  95.8263220   9.1159910
  71.9005120  94.0896590   1.7683000  72.3964240  93.8567460   2.5531880
  71.7021190  93.2508430   1.3520640  57.7805660  88.4710310   7.4034040
  58.4281850  87.9207690   6.9629200  58.2007500  88.7253460   8.2249850
  73.3292280  92.7257540   4.3020680  73.2191560  92.5713580   5.2402950
  74.0899870  92.1978480   4.0596090  71.6758000  88.6651670  10.7603680
  72.3130220  89.2785810  11.1262870  71.8232890  88.7012330   9.8152910
  57.5337660  88.6265980  10.1459360  57.1852480  89.0829800  10.9117540
  57.2025360  87.7323110  10.2281790  65.0462480  89.8177860  13.6678780
  64.9851370  90.4099690  14.4174190  65.9862860  89.7103820  13.5229040
  67.6837040  89.4747920  13.3071070  68.2977450  89.7927210  12.6452150
  68.2286600  88.9896510  13.9266930  58.2058300  88.1542180  13.4210130
  58.7541290  87.9730230  12.6576240  58.2713610  87.3636290  13.9566440
  68.4245080  88.0380060   9.6340360  67.5504920  88.3715170   9.4313290
  68.3155830  87.5653240  10.4592230  69.3317060  90.2450930  11.0182080
  69.0030420  89.4302690  10.6383810  70.2799360  90.2020740  10.8947770
  66.1719900  88.9549900   8.5733270  65.3891690  89.4295400   8.8530030
  65.8782830  88.0504730   8.4646450  70.7240970  89.6573000   6.6182360
  71.1649060  89.6018100   5.7703960  70.4548560  90.5731010   6.6892540
  72.5879540  89.2888240   4.6291180  72.5267940  88.3449460   4.4822200
  73.3671570  89.3968330   5.1744640  64.0574120  91.3736650   4.0849300
  63.2448630  90.9993540   3.7445180  64.5615760  90.6181730   4.3870490
  68.5599100  88.0379100   5.3232370  69.1628470  88.6099310   5.7980890
  67.8192090  88.6018540   5.1006270  62.0823300  89.5236570   2.6894350
  61.4526040  88.8223880   2.8564480  61.5428440  90.2840700   2.4727510
  62.2078860  88.8020550  15.1246840  61.9263130  89.3054150  14.3607660
  62.5898560  88.0042300  14.7588970  68.8094320  88.2174130  15.7027310
  68.6959770  88.5368740  16.5978830  69.6264060  88.6186640  15.4064590
  67.7152470  77.4623110  61.1636010  67.6346520  76.5477720  60.8927720
  67.3016890  77.9590180  60.4575720  65.8470510  79.2402130  63.0445280
  65.0712610  78.7602570  63.3343850  66.4983440  78.5607780  62.8701440
  59.8636340  79.5521940  63.9221040  59.0321220  79.2970650  64.3217550
  60.4717320  79.6232710  64.6578960  69.8677940  83.6462320  61.8244410
  69.4059470  82.8749560  62.1531580  70.6803490  83.6728390  62.3296860
  59.8437600  83.5862030  64.1179060  60.1465640  82.6959770  63.9389280
  60.5881190  84.1432250  63.8901310  58.2728290  74.5123830  57.7063430
  57.3844990  74.8539800  57.6043310  58.5569480  74.3124150  56.8144260
  56.2361300  77.1129480  63.5903130  56.8077410  76.3451680  63.5906770
  56.2362840  77.4118240  62.6809740  66.0941250  85.9320330  61.4448400
  65.4752690  86.3877830  60.8742840  66.9493030  86.0871790  61.0438100
  65.2879500  81.9159320  63.0515440  65.2187780  80.9749260  62.8904570
  66.0499360  82.0060730  63.6238010  57.4786170  72.5213840  65.3772060
  57.2989010  71.6239590  65.6574820  57.0766250  73.0685710  66.0519010
  66.3184670  74.7229700  63.2784370  66.6949490  73.8501580  63.1658040
  66.2204180  75.0588400  62.3874810  60.4489680  73.0955330  58.7401810
  60.5556430  73.9959060  59.0470570  59.5382040  73.0473300  58.4496460
  70.1008790  72.2180140  60.2112710  70.9218410  71.7276710  60.2538190
  70.1342870  72.8077800  60.9644550  58.0972840  75.0174340  63.9854400
  58.7782950  75.2812710  64.6041800  57.7820890  74.1775210  64.3192410
  62.2897410  76.0641700  63.0726990  62.7975630  76.5622670  63.7132010
  62.8210650  75.2876900  62.8966350  74.3908340  74.2346890  66.7756340
  73.6860510  74.6228600  66.2571450  74.6566260  74.9297180  67.3777270
  60.5733510  70.7040260  67.3390410  60.5751950  71.2212650  66.5336310
  59.7437820  70.2270440  67.3160340  66.9604600  80.8159570  58.8380310
  66.3421870  81.2809020  58.2743030  67.4727850  81.5087050  59.2549820
  61.8236360  80.3435440  65.5163910  61.4905740  80.9704360  66.1584980
  62.0003040  80.8697320  64.7365580  70.3370270  74.1580520  62.9840250
  69.6325840  74.4465410  63.5643360  70.6982430  74.9680630  62.6239810
  60.2548840  72.4150220  65.3460860  60.5965650  73.2592270  65.0514730
  59.3164650  72.5633960  65.4626200  61.0355460  82.3116240  67.3313090
  61.6529460  82.9867320  67.0497540  60.1748580  82.7204220  67.2400590
  56.3287800  81.5016100  56.2119940  55.9515780  81.9903200  55.4804840
  56.5860870  82.1741380  56.8426470  71.9533050  83.7755650  65.2467730
  71.2696570  84.4454760  65.2384400  72.4927340  83.9736300  64.4812590
  73.4057190  73.6035310  63.3749460  72.4582100  73.6374290  63.5064890
  73.7307180  74.4174260  63.7598820  63.9376730  69.9032490  61.6705450
  64.2451710  69.3479380  60.9540950  63.0077430  70.0376950  61.4878440
  69.4891790  85.6199780  63.9612910  69.5018950  85.2162070  63.0935170
  68.9367010  86.3947070  63.8574340  70.7837210  82.3416000  59.0503080
  70.6733540  81.3990330  59.1752500  70.7805460  82.7031640  59.9365840
  68.8877230  80.5229620  65.2895520  69.3046020  80.3089730  64.4548980
  69.6117050  80.7802410  65.8604140  66.3257490  77.9681320  58.4065570
  65.3986770  77.9018700  58.6354040  66.4782310  78.9061450  58.2920810
  66.3126570  74.2398320  55.4032730  65.3730240  74.4012280  55.4885190
  66.6309830  74.9584000  54.8568720  72.8339330  78.9216840  65.3811760
  72.0057960  78.9909930  64.9061890  73.4289810  79.5071150  64.9127590
  70.3554780  79.5301620  58.9100820  69.7367200  79.1921170  58.2627120
  70.3379230  78.8861380  59.6180010  69.7981340  75.7086160  66.3266630
  69.3852520  76.5339870  66.5806620  69.0657290  75.1231200  66.1342990
  61.9314130  78.4946060  61.1885300  61.5271130  77.7823310  60.6931200
  62.0177250  78.1499300  62.0773340  62.3995830  82.1813620  63.3524510
  62.1024120  81.5759090  62.6732290  63.3495650  82.2190930  63.2413870
  60.6442750  75.2689270  64.9684340  61.1957340  75.3784610  64.1937590
  61.1586260  75.6426870  65.6839570  70.4881440  85.7545490  67.0147610
  70.0112000  86.5617680  66.8220220  69.8043230  85.1023820  67.1673820
  68.5319480  78.7688430  55.9173570  68.9712760  77.9310860  55.7711390
  69.2447900  79.4017830  56.0037710  66.6414860  83.7084500  59.8854810
  67.0810770  84.4508830  59.4710200  66.5801750  83.9511070  60.8093770
  72.1136620  70.0231240  54.2314610  71.8009280  70.1158070  55.1313680
  72.8749090  70.6012270  54.1812040  58.6318760  77.3891040  58.6891950
  58.5116360  78.1153130  58.0773220  58.3219650  76.6193950  58.2119860
  56.2704130  80.5606180  64.4960590  56.3484550  80.6954950  63.5516310
  56.8845810  79.8522070  64.6888710  57.5151760  82.2606370  60.9066770
  57.1079840  82.4020960  60.0520370  58.4064770  81.9766530  60.7037980
  69.3085040  86.6953620  57.2417820  69.1486180  86.4056560  58.1399650
  69.1431750  85.9193750  56.7063050  61.7873420  86.4752150  59.0189440
  61.6115900  85.5587690  58.8057240  60.9329160  86.8339440  59.2587240
  69.0111170  84.2041180  55.8015820  68.3176330  84.2018470  55.1418100
  69.7534030  83.7800500  55.3709990  68.5761100  85.8303890  59.8764310
  69.0318050  85.0493270  60.1902930  68.9153620  86.5410710  60.4205490
  56.3263650  81.6020350  67.0355050  56.4894690  81.1325710  66.2174420
  56.7916100  81.0943910  67.7003890  61.0982420  70.7326110  62.0715620
  60.6550570  71.5135650  61.7400140  61.6567410  71.0556000  62.7786560
  64.2141240  70.3536810  56.9521450  63.5895420  70.3496680  57.6774760
  64.1271360  69.4867770  56.5557420  63.1358320  71.2773440  63.9305220
  63.4330650  72.1836270  63.8497240  63.6843880  70.7892220  63.3164790
  60.8896640  75.8559680  59.7996870  60.6637560  75.6396850  60.7043490
  60.1089170  76.2888140  59.4542840  68.1194400  75.8623050  58.3987520
  67.5203290  76.5858850  58.2151140  68.6674010  75.7999830  57.6163970
  66.7259270  74.4986590  60.4290800  67.1188840  74.8158790  59.6159490
  67.0876120  73.6198470  60.5435320  55.7623440  71.0887390  62.6521000
  55.4736490  71.6590250  63.3645980  56.5069200  70.6091840  63.0152230
  55.9493670  75.0307510  53.8623720  55.8668340  75.9738270  54.0038710
  55.5976730  74.8882420  52.9836070  67.3114410  77.0892340  64.5241580
  66.5795530  77.5979150  64.8731680  66.9138750  76.2722320  64.2230360
  63.7491800  73.7646540  62.9294070  63.7527860  73.3236490  62.0798610
  64.6442920  74.0863870  63.0365890  59.5994180  73.6473030  61.8888280
  59.2594230  74.1248260  62.6455330  58.8371500  73.1938150  61.5289380
  63.8111950  74.7658620  55.9200830  63.9324770  74.7245100  56.8686650
  63.4260460  75.6282770  55.7647560  67.7740320  72.5426020  63.9364520
  67.7913060  72.9934670  64.7806370  67.5255900  71.6431660  64.1497960
  62.8233450  77.0759760  55.3184130  62.2550350  76.6278010  54.6920040
  63.5322450  77.4352540  54.7849280  64.0499770  77.8248320  64.6759480
  64.4169900  77.3506890  65.4220820  63.8604830  78.6989890  65.0167820
  56.9140260  72.5692010  60.8052950  56.6287180  72.2047680  61.6431570
  56.8519120  71.8372470  60.1916090  61.8399140  76.8656960  66.9943690
  61.5356210  77.7448940  67.2194050  62.7945600  76.9256750  67.0301130
  60.3680930  81.0717950  57.5910540  59.5943190  80.5315570  57.4309260
  61.0975560  80.5524560  57.2528300  71.1268910  80.0683310  63.3836930
  71.8468030  80.5638600  62.9933040  70.9250730  79.3901200  62.7390800
  66.5878850  71.4621270  57.5266320  65.7743460  70.9634440  57.4511630
  66.3940800  72.3019520  57.1102670  69.3027240  75.8340920  55.8228480
  70.1906860  76.1458150  55.6479820  69.2732330  74.9613170  55.4309060
  60.4118330  80.7398330  61.2289350  60.9297000  79.9366590  61.1746240
  59.9602350  80.6777470  62.0706180  65.2987830  82.0064610  56.5016650
  65.6403530  82.7506840  56.0059970  64.4700540  82.3195730  56.8641480
  71.5741510  77.1452760  55.2908340  71.4905230  77.5766980  54.4404780
  72.2935700  77.6051110  55.7235160  72.6028760  83.9995020  58.0190470
  71.9604920  83.3450640  58.2934190  72.2159420  84.4050110  57.2431140
  68.1815240  81.3280450  61.8662160  68.5339060  80.7308580  61.2063530
  67.2977570  81.0024680  62.0370410  64.2678520  82.0878140  59.2732570
  64.9549650  82.6347350  59.6540160  63.4810940  82.6318870  59.3082180
  56.4070920  77.7050960  54.7649650  57.2765770  77.9875760  55.0485570
  55.9161240  78.5186830  54.6498460  63.5705730  79.0924170  58.8857930
  64.0268510  79.9029420  59.1118120  63.2193940  78.7747310  59.7176420
  65.8738340  84.6030510  66.1150230  66.5180560  84.8089890  66.7923650
  66.2367780  83.8418910  65.6621080  59.4717510  69.4361820  59.3580450
  59.3432140  69.4279720  60.3065370  58.6479530  69.7744910  59.0071460
  67.1470420  82.6062860  64.8327680  67.7892650  81.9056020  64.9459850
  67.6719770  83.3861300  64.6524570  70.9926140  82.8911480  54.5566820
  70.7663720  82.1741920  55.1491460  70.6022340  82.6423920  53.7188570
  56.7742170  86.9178340  55.3311280  57.1339810  87.5167680  54.6768550
  56.6334510  87.4638230  56.1046310  70.5742390  80.8083420  56.2180980
  70.2864090  81.2696110  57.0058860  71.3694560  80.3481190  56.4865200
  62.7910790  84.3009540  56.1484950  62.7820890  85.0339230  55.5329460
  61.8709150  84.0541120  56.2411910  58.3917430  79.5224430  56.8931710
  57.7845380  80.2623330  56.9027010  58.8666780  79.6123790  56.0669910
  67.9650220  73.6875250  66.5688600  68.3331040  72.8670460  66.8968170
  67.1048420  73.7477140  66.9844250  71.3312250  72.6432190  57.3776160
  70.7025410  72.7477860  56.6634390  70.8364170  72.8628970  58.1670040
  65.7770390  84.3637780  54.8110140  65.8782370  84.1601770  53.8812120
  64.8772130  84.1096060  55.0157920  63.2996280  74.9218140  58.7934040
  62.5912430  75.3904480  59.2347650  63.5840760  74.2640150  59.4279230
  64.9252210  76.3414840  66.7926570  65.4237460  76.8160660  67.4578420
  65.0675160  75.4178360  66.9996600  67.3311710  71.6468800  60.2329830
  67.2079490  71.6654930  59.2839340  68.2796270  71.6947740  60.3528230
  64.4188500  86.8824100  59.5057810  64.6730000  86.8445490  58.5837180
  63.4700980  86.7557430  59.4986060  61.5031300  73.2303220  56.1684750
  62.3521830  73.6673370  56.1024940  61.1362570  73.5423480  56.9956810
  70.4241080  77.8015980  61.0816320  69.4831220  77.8166210  61.2564010
  70.7385150  77.0151940  61.5276620  60.4022720  79.4835580  54.6420280
  61.1685990  79.3716940  55.2045710  60.4797410  78.7873550  53.9897050
  59.0969480  76.9160650  55.3253170  59.1773070  75.9688160  55.4370570
  59.9889230  77.2467530  55.4313830  72.4266660  84.9724830  62.7570580
  72.5514080  85.7956000  63.2294390  73.2932220  84.7615560  62.4094730
  59.8984190  87.0656040  62.4287710  60.6346670  86.5171500  62.6996280
  60.2825110  87.9312050  62.2893700  56.7829670  83.1329610  58.3029220
  55.8569450  83.3750750  58.2934630  57.2486100  83.9603870  58.1813970
  63.0086500  86.2386350  54.2513280  63.8015110  86.5275180  53.7995070
  62.4890850  85.8078520  53.5725760  72.0616670  85.4656480  55.6750020
  71.7758180  85.0521620  54.8604200  71.8636220  86.3944190  55.5550540
  63.5263900  81.4589760  54.1155630  63.4214540  80.8442110  54.8417010
  63.3588120  80.9355650  53.3318640  66.7666630  80.5209790  54.7197620
  66.2176730  80.9679090  55.3640360  67.3885890  80.0159040  55.2435290
  62.4341750  79.4800710  56.6162920  62.8558170  79.3140580  57.4594310
  62.5592590  78.6700940  56.1218060  64.9469390  78.5038320  53.8640020
  65.4675050  77.7887340  53.4981170  65.5937790  79.1424190  54.1640530
  63.8502910  70.9832870  66.5358580  63.4020210  71.0057130  65.6904130
  63.2168110  70.5851890  67.1328880  64.2562460  79.8787200  67.1571020
  64.6750570  80.7219930  66.9847260  63.3371090  80.0159240  66.9277800
  68.9314260  78.1640570  67.1171370  68.4049480  78.6883190  66.5136510
  69.2745600  78.7967960  67.7481100  61.3300650  75.5533940  53.5621080
  61.1289710  74.6901300  53.9234420  61.1592700  75.4667300  52.6242680
  68.8088960  70.3642170  56.0907960  69.0891250  69.5210070  56.4467380
  68.0354690  70.5965280  56.6046710  60.1283450  72.6534560  53.5498960
  60.4309350  72.6601990  52.6418110  60.8678040  72.3032420  54.0466620
  63.3468380  71.5969180  54.5355160  62.9990380  70.9193170  53.9557610
  63.5481150  71.1358690  55.3498550  65.5117420  86.5849930  56.1541760
  66.4068210  86.9234900  56.1760520  65.5435050  85.8629340  55.5266040
  59.1513580  81.9576980  54.3828760  59.5888450  82.5006650  55.0386340
  59.6361310  81.1323930  54.3925100  56.3659380  84.7466010  61.8349020
  56.6962390  83.8787070  61.6027660  56.7950380  84.9524530  62.6653980
  60.9621300  83.0775020  59.4950990  60.6616840  82.9539990  60.3954900
  60.8558790  82.2183610  59.0866720  56.8549590  85.6136600  64.5730650
  56.4180580  85.7937400  65.4054800  57.4227270  86.3711220  64.4312370
  73.7313220  82.8571420  54.1977670  72.9006180  82.9248070  54.6684900
  73.9085050  83.7475540  53.8944530  73.1869680  79.6018900  56.7011870
  73.9488590  80.1715550  56.8071560  73.2024050  79.0346100  57.4720180
  56.6874020  78.1256830  60.9319530  56.0322860  77.8568470  60.2879230
  57.5251970  78.0161310  60.4821510  74.1929650  80.4569000  61.5453800
  74.5638480  79.6736320  61.1389770  74.8331580  81.1458100  61.3671100
  71.1763410  81.8405580  66.9584120  70.3623250  82.2702740  67.2209910
  71.5837610  82.4523990  66.3453170  73.2388850  79.8953270  53.8584390
  73.5137690  80.8032150  53.7303610  73.0499590  79.8315800  54.7946380
  69.6364460  72.9198120  55.1538020  70.0549340  72.7329100  54.3134680
  69.3300520  72.0677170  55.4640950  73.1354190  77.8322260  58.8513820
  72.7597790  77.0650190  58.4195110  72.4057310  78.2144960  59.3388750
  57.7249950  78.5109400  65.4722870  58.0922990  78.4236800  66.3518890
  57.1560770  77.7475950  65.3729730  55.9012100  75.3355760  56.8744860
  54.9976180  75.5985960  56.6996520  56.3852720  75.6066930  56.0944820
  72.4105150  76.0579750  62.1521060  72.9342630  75.5642400  61.5211230
  72.9964570  76.1930110  62.8968630  72.5894870  76.1419620  65.6740610
  71.6397580  76.1083160  65.7885600  72.7707880  77.0519730  65.4390380
  58.4439310  74.3921300  54.7839240  59.1531010  73.9704520  54.2986520
  57.7279250  74.4596530  54.1522590  58.0913470  70.4460630  53.8241890
  58.8141600  70.9869570  54.1423110  58.3637990  70.1724050  52.9483430
  71.9005120  75.3153100  58.0913470  72.3964240  75.0823970  58.8762350
  71.7021190  74.4764940  57.6751110  57.7805660  69.6966820  63.7264510
  58.4281850  69.1464200  63.2859670  58.2007500  69.9509970  64.5480320
  73.3292280  73.9514050  60.6251150  73.2191560  73.7970090  61.5633420
  74.0899870  73.4234990  60.3826560  71.6758000  69.8908180  67.0834150
  72.3130220  70.5042320  67.4493340  71.8232890  69.9268840  66.1383380
  74.2182550  71.7821970  53.8657290  75.1431860  71.6503150  53.6575580
  74.1958340  71.8614790  54.8193740  74.2921040  72.5532630  56.4914000
  73.4972540  72.4877750  57.0206910  74.4964320  73.4883270  56.4799350
  71.2339460  86.5924180  60.4852390  71.8298530  86.2708750  59.8086810
  71.4917610  86.1196000  61.2765660  57.5337660  69.8522490  66.4689830
  57.1852480  70.3086310  67.2348010  57.2025360  68.9579620  66.5512260
  62.8408060  84.5801680  66.2352740  62.5999420  84.8476240  65.3483260
  63.7810700  84.7507410  66.2903600  74.1012220  86.5996060  67.0363380
  73.6070500  86.9964930  66.3190510  73.4925510  85.9745270  67.4300660
  68.4245080  69.2636570  65.9570830  67.5504920  69.5971680  65.7543760
  68.3155830  68.7909750  66.7822700  69.3317060  71.4707440  67.3412550
  69.0030420  70.6559200  66.9614280  70.2799360  71.4277250  67.2178240
  71.7851670  87.2419480  64.3150120  71.3254640  87.9935290  63.9408140
  71.1564130  86.5225950  64.2564920  58.6102290  83.3362720  66.7048840
  57.8836350  82.7168010  66.6374790  58.6711440  83.7303330  65.8346920
  62.2147390  85.5507720  63.4898250  62.7312410  84.9395080  62.9646510
  62.8644770  86.0536500  63.9809260  64.9542890  86.4416210  64.3167230
  65.2420700  86.1870510  63.4400240  65.4666110  85.8893570  64.9072800
  66.1719900  70.1806410  64.8963740  65.3891690  70.6551910  65.1760500
  65.8782830  69.2761240  64.7876920  70.7240970  70.8829510  62.9412830
  71.1649060  70.8274610  62.0934430  70.4548560  71.7987520  63.0123010
  72.5879540  70.5144750  60.9521650  72.5267940  69.5705970  60.8052670
  73.3671570  70.6224840  61.4975110  56.8932290  86.6537110  59.9145600
  56.7254330  86.0207790  60.6127490  56.0266800  86.8596510  59.5639790
  57.5160310  70.4853890  57.4177460  58.2739670  70.5982770  56.8441490
  57.0537480  71.3223090  57.3720890  64.0574120  72.5993160  60.4079770
  63.2448630  72.2250050  60.0675650  64.5615760  71.8438240  60.7100960
  68.5599100  69.2635610  61.6462840  69.1628470  69.8355820  62.1211360
  67.8192090  69.8275050  61.4236740  71.7033700  69.6657170  56.9203120
  71.8984330  70.5640620  57.1870550  70.9163570  69.4344250  57.4136070
  58.4994990  85.3470340  57.3595740  57.9742610  85.7278370  56.6557700
  58.4239570  85.9721110  58.0805450  59.8885460  71.0117940  55.9579430
  60.4178220  70.2247740  55.8287380  60.5213780  71.6909130  56.1914960
  62.0823300  70.7493080  59.0124820  61.4526040  70.0480390  59.1794950
  61.5428440  71.5097210  58.7957980  73.2560310  86.9057880  58.6809680
  73.4312500  86.2195620  58.0370600  72.5581880  87.4304930  58.2886350
  61.0987960  87.2952720  56.2344990  61.8306780  87.0112000  55.6868880
  61.3581630  87.0566000  57.1244370  60.2602750  83.4117450  56.2391320
  59.6311630  83.8802550  56.7877150  60.3750580  82.5666670  56.6737510
  67.7152470  77.4623110  42.3892520  67.6346520  76.5477720  42.1184230
  67.3016890  77.9590180  41.6832230  65.8470510  79.2402130  44.2701790
  65.0712610  78.7602570  44.5600360  66.4983440  78.5607780  44.0957950
  59.8636340  79.5521940  45.1477550  59.0321220  79.2970650  45.5474060
  60.4717320  79.6232710  45.8835470  69.8677940  83.6462320  43.0500920
  69.4059470  82.8749560  43.3788090  70.6803490  83.6728390  43.5553370
  59.8437600  83.5862030  45.3435570  60.1465640  82.6959770  45.1645790
  60.5881190  84.1432250  45.1157820  66.0941250  85.9320330  42.6704910
  65.4752690  86.3877830  42.0999350  66.9493030  86.0871790  42.2694610
  65.2879500  81.9159320  44.2771950  65.2187780  80.9749260  44.1161080
  66.0499360  82.0060730  44.8494520  66.3184670  74.7229700  44.5040880
  66.6949490  73.8501580  44.3914550  66.2204180  75.0588400  43.6131320
  70.1008790  72.2180140  41.4369220  70.9218410  71.7276710  41.4794700
  70.1342870  72.8077800  42.1901060  74.3908340  74.2346890  48.0012850
  73.6860510  74.6228600  47.4827960  74.6566260  74.9297180  48.6033780
  60.5733510  70.7040260  48.5646920  60.5751950  71.2212650  47.7592820
  59.7437820  70.2270440  48.5416850  66.9604600  80.8159570  40.0636820
  66.3421870  81.2809020  39.4999540  67.4727850  81.5087050  40.4806330
  61.8236360  80.3435440  46.7420420  61.4905740  80.9704360  47.3841490
  62.0003040  80.8697320  45.9622090  70.3370270  74.1580520  44.2096760
  69.6325840  74.4465410  44.7899870  70.6982430  74.9680630  43.8496320
  61.0355460  82.3116240  48.5569600  61.6529460  82.9867320  48.2754050
  60.1748580  82.7204220  48.4657100  56.3287800  81.5016100  37.4376450
  55.9515780  81.9903200  36.7061350  56.5860870  82.1741380  38.0682980
  71.9533050  83.7755650  46.4724240  71.2696570  84.4454760  46.4640910
  72.4927340  83.9736300  45.7069100  73.4057190  73.6035310  44.6005970
  72.4582100  73.6374290  44.7321400  73.7307180  74.4174260  44.9855330
  69.4891790  85.6199780  45.1869420  69.5018950  85.2162070  44.3191680
  68.9367010  86.3947070  45.0830850  70.7837210  82.3416000  40.2759590
  70.6733540  81.3990330  40.4009010  70.7805460  82.7031640  41.1622350
  68.8877230  80.5229620  46.5152030  69.3046020  80.3089730  45.6805490
  69.6117050  80.7802410  47.0860650  66.3257490  77.9681320  39.6322080
  65.3986770  77.9018700  39.8610550  66.4782310  78.9061450  39.5177320
  72.8339330  78.9216840  46.6068270  72.0057960  78.9909930  46.1318400
  73.4289810  79.5071150  46.1384100  70.3554780  79.5301620  40.1357330
  69.7367200  79.1921170  39.4883630  70.3379230  78.8861380  40.8436520
  69.7981340  75.7086160  47.5523140  69.3852520  76.5339870  47.8063130
  69.0657290  75.1231200  47.3599500  62.3995830  82.1813620  44.5781020
  62.1024120  81.5759090  43.8988800  63.3495650  82.2190930  44.4670380
  70.4881440  85.7545490  48.2404120  70.0112000  86.5617680  48.0476730
  69.8043230  85.1023820  48.3930330  61.4914260  81.9195310  51.2288820
  60.5942790  82.1435280  51.4762220  61.5167130  82.0430250  50.2800220
  68.5319480  78.7688430  37.1430080  68.9712760  77.9310860  36.9967900
  69.2447900  79.4017830  37.2294220  60.3185480  78.7908630  49.8046190
  60.1793250  79.6631430  50.1733590  59.4366840  78.4481440  49.6594130
  66.6414860  83.7084500  41.1111320  67.0810770  84.4508830  40.6966710
  66.5801750  83.9511070  42.0350280  62.1165830  84.7330330  52.0131340
  62.0881260  85.1373280  51.1459770  61.9530800  83.8040690  51.8502940
  72.1136620  70.0231240  35.4571120  71.8009280  70.1158070  36.3570190
  72.8749090  70.6012270  35.4068550  74.0680650  85.5157430  53.3095510
  74.5440370  85.9940320  53.9884590  74.6887810  85.4474920  52.5841010
  56.2704130  80.5606180  45.7217100  56.3484550  80.6954950  44.7772820
  56.8845810  79.8522070  45.9145220  57.5151760  82.2606370  42.1323280
  57.1079840  82.4020960  41.2776880  58.4064770  81.9766530  41.9294490
  73.4713900  82.7070280  50.4695520  73.5976960  82.4682160  49.5512700
  73.5135280  81.8754820  50.9417600  67.3330640  86.4098280  49.0390330
  67.8475310  86.3206290  49.8412760  66.4899720  86.7557980  49.3318240
  69.3085040  86.6953620  38.4674330  69.1486180  86.4056560  39.3656160
  69.1431750  85.9193750  37.9319560  61.7873420  86.4752150  40.2445950
  61.6115900  85.5587690  40.0313750  60.9329160  86.8339440  40.4843750
  69.0111170  84.2041180  37.0272330  68.3176330  84.2018470  36.3674610
  69.7534030  83.7800500  36.5966500  68.5761100  85.8303890  41.1020820
  69.0318050  85.0493270  41.4159440  68.9153620  86.5410710  41.6462000
  73.3237910  74.7602740  51.4345260  72.7082180  75.2682410  50.9060720
  73.0034330  73.8601070  51.3771200  56.3263650  81.6020350  48.2611560
  56.4894690  81.1325710  47.4430930  56.7916100  81.0943910  48.9260400
  65.3852230  73.5994630  48.9007450  64.9231600  73.8077650  49.7127390
  64.9830340  72.7853980  48.5978120  70.3856740  74.8203580  50.0304110
  69.5350330  74.5209330  50.3513180  70.2258530  75.0645590  49.1187930
  67.4806450  76.3205330  52.1302900  67.8059860  75.4869080  51.7905130
  68.2686780  76.8433850  52.2781230  68.1194400  75.8623050  39.6244030
  67.5203290  76.5858850  39.4407650  68.6674010  75.7999830  38.8420480
  63.3295850  76.7545260  51.6913650  63.2339450  75.8139990  51.5414050
  64.1727830  76.9760330  51.2961720  66.7259270  74.4986590  41.6547310
  67.1188840  74.8158790  40.8416000  67.0876120  73.6198470  41.7691830
  58.4606390  73.1658930  49.8447430  58.0669780  74.0134140  50.0520210
  57.7724790  72.5285300  50.0356070  65.0351440  73.2493900  52.9144170
  64.3449760  73.0566100  53.5490260  65.7783740  73.5328540  53.4468470
  67.3114410  77.0892340  45.7498090  66.5795530  77.5979150  46.0988190
  66.9138750  76.2722320  45.4486870  67.7740320  72.5426020  45.1621030
  67.7913060  72.9934670  46.0062880  67.5255900  71.6431660  45.3754470
  71.2011070  69.9558200  51.0007410  71.5256840  69.2247860  51.5265390
  71.2367580  69.6371840  50.0988400  57.9002630  80.9771780  50.4207370
  57.5157420  80.3365450  51.0190330  58.2114820  81.6807900  50.9902100
  64.0499770  77.8248320  45.9015990  64.4169900  77.3506890  46.6477330
  63.8604830  78.6989890  46.2424330  61.8399140  76.8656960  48.2200200
  61.5356210  77.7448940  48.4450560  62.7945600  76.9256750  48.2557640
  60.3680930  81.0717950  38.8167050  59.5943190  80.5315570  38.6565770
  61.0975560  80.5524560  38.4784810  71.1268910  80.0683310  44.6093440
  71.8468030  80.5638600  44.2189550  70.9250730  79.3901200  43.9647310
  66.5087710  80.1392370  50.4962440  66.4425020  79.2188040  50.2420030
  65.8792850  80.2367810  51.2107080  69.3027240  75.8340920  37.0484990
  70.1906860  76.1458150  36.8736330  69.2732330  74.9613170  36.6565570
  60.4118330  80.7398330  42.4545860  60.9297000  79.9366590  42.4002750
  59.9602350  80.6777470  43.2962690  65.2987830  82.0064610  37.7273160
  65.6403530  82.7506840  37.2316480  64.4700540  82.3195730  38.0897990
  57.8962870  77.7059700  49.3671560  57.5377810  78.3713550  49.9544900
  57.6017430  76.8743250  49.7384180  61.0975990  78.1643940  52.2511110
  60.7976130  78.3101120  51.3538930  61.8687230  77.6049230  52.1584500
  66.4404440  82.9612940  50.2466240  66.4548980  82.0293900  50.0285150
  65.7329540  83.0472700  50.8856010  71.5741510  77.1452760  36.5164850
  71.4905230  77.5766980  35.6661290  72.2935700  77.6051110  36.9491670
  72.6515650  79.6020280  49.5934820  71.9263840  80.1949060  49.3964210
  73.1791110  79.5943820  48.7948190  72.6028760  83.9995020  39.2446980
  71.9604920  83.3450640  39.5190700  72.2159420  84.4050110  38.4687650
  68.1815240  81.3280450  43.0918670  68.5339060  80.7308580  42.4320040
  67.2977570  81.0024680  43.2626920  64.2678520  82.0878140  40.4989080
  64.9549650  82.6347350  40.8796670  63.4810940  82.6318870  40.5338690
  63.5705730  79.0924170  40.1114440  64.0268510  79.9029420  40.3374630
  63.2193940  78.7747310  40.9432930  65.8738340  84.6030510  47.3406740
  66.5180560  84.8089890  48.0180160  66.2367780  83.8418910  46.8877590
  67.1470420  82.6062860  46.0584190  67.7892650  81.9056020  46.1716360
  67.6719770  83.3861300  45.8781080  70.9926140  82.8911480  35.7823330
  70.7663720  82.1741920  36.3747970  70.6022340  82.6423920  34.9445080
  68.9208040  83.4057760  49.2620250  69.2564280  83.9924450  49.9398170
  68.0008380  83.2750470  49.4918040  56.7742170  86.9178340  36.5567790
  57.1339810  87.5167680  35.9025060  56.6334510  87.4638230  37.3302820
  56.4711440  71.1952940  50.0443660  55.7569960  71.3949860  50.6496270
  56.8906480  70.4192510  50.4158460  70.5742390  80.8083420  37.4437490
  70.2864090  81.2696110  38.2315370  71.3694560  80.3481190  37.7121710
  56.7584030  85.1833200  51.0310190  56.8675150  84.2427940  50.8905580
  56.1064590  85.4487950  50.3823920  64.7496620  83.4549090  52.4308310
  64.4293490  82.7358330  52.9754000  64.0754980  84.1304160  52.5044370
  62.7910790  84.3009540  37.3741460  62.7820890  85.0339230  36.7585970
  61.8709150  84.0541120  37.4668420  58.3917430  79.5224430  38.1188220
  57.7845380  80.2623330  38.1283520  58.8666780  79.6123790  37.2926420
  67.9650220  73.6875250  47.7945110  68.3331040  72.8670460  48.1224680
  67.1048420  73.7477140  48.2100760  71.3312250  72.6432190  38.6032670
  70.7025410  72.7477860  37.8890900  70.8364170  72.8628970  39.3926550
  65.7770390  84.3637780  36.0366650  65.8782370  84.1601770  35.1068630
  64.8772130  84.1096060  36.2414430  64.9252210  76.3414840  48.0183080
  65.4237460  76.8160660  48.6834930  65.0675160  75.4178360  48.2253110
  64.4188500  86.8824100  40.7314320  64.6730000  86.8445490  39.8093690
  63.4700980  86.7557430  40.7242570  72.1319070  72.5582800  48.8611470
  71.6292670  73.2988200  49.2005280  72.9475730  72.9466800  48.5448260
  70.4241080  77.8015980  42.3072830  69.4831220  77.8166210  42.4820520
  70.7385150  77.0151940  42.7533130  60.4022720  79.4835580  35.8676790
  61.1685990  79.3716940  36.4302220  60.4797410  78.7873550  35.2153560
  72.4266660  84.9724830  43.9827090  72.5514080  85.7956000  44.4550900
  73.2932220  84.7615560  43.6351240  59.8984190  87.0656040  43.6544220
  60.6346670  86.5171500  43.9252790  60.2825110  87.9312050  43.5150210
  56.7829670  83.1329610  39.5285730  55.8569450  83.3750750  39.5191140
  57.2486100  83.9603870  39.4070480  58.9042470  86.2502110  52.8429800
  59.7055200  86.5714160  53.2565200  58.3894290  85.8897690  53.5649710
  63.0086500  86.2386350  35.4769790  63.8015110  86.5275180  35.0251580
  62.4890850  85.8078520  34.7982270  67.7407100  82.3581980  52.7905210
  67.1345260  82.3813580  52.0500960  67.4361210  81.6265020  53.3272460
  69.1707470  86.0862270  51.4014620  70.1229220  86.0020290  51.3514860
  69.0235690  86.7503980  52.0748410  72.0616670  85.4656480  36.9006530
  71.7758180  85.0521620  36.0860710  71.8636220  86.3944190  36.7807050
  56.6240280  78.7375570  51.7865850  57.1279300  78.1582850  52.3582080
  55.8847700  79.0215800  52.3242220  63.5263900  81.4589760  35.3412140
  63.4214540  80.8442110  36.0673520  63.3588120  80.9355650  34.5575150
  63.6778220  80.1446560  51.3201370  62.9123890  80.7131560  51.2356040
  63.8594180  79.8522770  50.4269600  66.7666630  80.5209790  35.9454130
  66.2176730  80.9679090  36.5896870  67.3885890  80.0159040  36.4691800
  70.8201570  81.8751890  51.8776390  71.5611040  82.2127650  51.3743850
  70.0574250  82.0443950  51.3246160  58.6563360  76.8805160  52.6815920
  58.6968700  76.5819030  53.5901150  59.5108860  77.2812770  52.5223440
  62.4341750  79.4800710  37.8419430  62.8558170  79.3140580  38.6850820
  62.5592590  78.6700940  37.3474570  60.5969170  75.4597260  50.6490410
  60.0665630  74.9688210  50.0213750  61.2657240  75.8881460  50.1148340
  64.9469390  78.5038320  35.0896530  65.4675050  77.7887340  34.7237680
  65.5937790  79.1424190  35.3897040  69.4947230  79.9266720  50.4131600
  69.9088250  80.0811800  51.2622020  68.5598230  80.0521940  50.5757380
  69.9669400  77.2662880  52.4170750  70.5490170  76.5115200  52.3291230
  70.1431170  77.7970320  51.6402230  61.0841470  72.4259630  50.7287700
  60.9898340  71.8080380  50.0038570  60.5038860  73.1525920  50.5017610
  63.8502910  70.9832870  47.7615090  63.4020210  71.0057130  46.9160640
  63.2168110  70.5851890  48.3585390  64.2562460  79.8787200  48.3827530
  64.6750570  80.7219930  48.2103770  63.3371090  80.0159240  48.1534310
  66.5926360  77.6103380  49.7665370  66.7122570  77.0144520  50.5060210
  67.4520360  77.6473070  49.3466670  68.9314260  78.1640570  48.3427880
  68.4049480  78.6883190  47.7393020  69.2745600  78.7967960  48.9737610
  62.1069880  86.1840210  49.4985260  61.5690970  86.9086270  49.1793960
  62.3603840  85.7070550  48.7082600  63.3595130  74.1524730  51.0241190
  63.9494820  73.8440580  51.7119010  62.5415370  73.6804480  51.1801090
  68.1788560  73.7690540  51.2574210  67.4904080  73.1072080  51.1924200
  68.8994580  73.3228810  51.7022670  64.9632090  87.4191420  49.7571910
  64.8890790  88.3226560  50.0644280  64.0610930  87.1003320  49.7293980
  65.5117420  86.5849930  37.3798270  66.4068210  86.9234900  37.4017030
  65.5435050  85.8629340  36.7522550  59.1513580  81.9576980  35.6085270
  59.5888450  82.5006650  36.2642850  59.6361310  81.1323930  35.6181610
  56.3659380  84.7466010  43.0605530  56.6962390  83.8787070  42.8284170
  56.7950380  84.9524530  43.8910490  60.9621300  83.0775020  40.7207500
  60.6616840  82.9539990  41.6211410  60.8558790  82.2183610  40.3123230
  56.8549590  85.6136600  45.7987160  56.4180580  85.7937400  46.6311310
  57.4227270  86.3711220  45.6568880  72.4911770  85.1153600  50.0864470
  71.8913760  85.1746160  49.3428390  72.6205670  84.1758580  50.2161320
  73.7313220  82.8571420  35.4234180  72.9006180  82.9248070  35.8941410
  73.9085050  83.7475540  35.1201040  73.1869680  79.6018900  37.9268380
  73.9488590  80.1715550  38.0328070  73.2024050  79.0346100  38.6976690
  74.1929650  80.4569000  42.7710310  74.5638480  79.6736320  42.3646280
  74.8331580  81.1458100  42.5927610  71.1763410  81.8405580  48.1840630
  70.3623250  82.2702740  48.4466420  71.5837610  82.4523990  47.5709680
  73.2388850  79.8953270  35.0840900  73.5137690  80.8032150  34.9560120
  73.0499590  79.8315800  36.0202890  69.6364460  72.9198120  36.3794530
  70.0549340  72.7329100  35.5391190  69.3300520  72.0677170  36.6897460
  73.1354190  77.8322260  40.0770330  72.7597790  77.0650190  39.6451620
  72.4057310  78.2144960  40.5645260  57.7249950  78.5109400  46.6979380
  58.0922990  78.4236800  47.5775400  57.1560770  77.7475950  46.5986240
  72.5253810  76.9793780  49.7109850  72.2939900  76.7506530  48.8107800
  72.7858360  77.8993330  49.6654740  57.2765950  75.4218490  50.6037800
  56.3822000  75.3885250  50.9431510  57.8163500  75.6205280  51.3689050
  70.9641880  72.2050210  52.4889550  71.8412060  72.2133610  52.8723550
  70.9762720  71.4681050  51.8781900  72.4105150  76.0579750  43.3777570
  72.9342630  75.5642400  42.7467740  72.9964570  76.1930110  44.1225140
  72.5894870  76.1419620  46.8997120  71.6397580  76.1083160  47.0142110
  72.7707880  77.0519730  46.6646890  71.9005120  75.3153100  39.3169980
  72.3964240  75.0823970  40.1018860  71.7021190  74.4764940  38.9007620
  73.3292280  73.9514050  41.8507660  73.2191560  73.7970090  42.7889930
  74.0899870  73.4234990  41.6083070  71.6758000  69.8908180  48.3090660
  72.3130220  70.5042320  48.6749850  71.8232890  69.9268840  47.3639890
  74.2182550  71.7821970  35.0913800  75.1431860  71.6503150  34.8832090
  74.1958340  71.8614790  36.0450250  74.2921040  72.5532630  37.7170510
  73.4972540  72.4877750  38.2463420  74.4964320  73.4883270  37.7055860
  71.2339460  86.5924180  41.7108900  71.8298530  86.2708750  41.0343320
  71.4917610  86.1196000  42.5022170  57.5337660  69.8522490  47.6946340
  57.1852480  70.3086310  48.4604520  57.2025360  68.9579620  47.7768770
  59.1402030  83.0242090  51.8599530  59.0971660  82.6535000  52.7413990
  59.2713040  83.9619660  52.0001350  62.8408060  84.5801680  47.4609250
  62.5999420  84.8476240  46.5739770  63.7810700  84.7507410  47.5160110
  65.0462480  71.0434370  51.2165760  64.9851370  71.6356200  51.9661170
  65.9862860  70.9360330  51.0716020  67.6837040  70.7004430  50.8558050
  68.2977450  71.0183720  50.1939130  68.2286600  70.2153020  51.4753910
  74.1012220  86.5996060  48.2619890  73.6070500  86.9964930  47.5447020
  73.4925510  85.9745270  48.6557170  58.2058300  69.3798690  50.9697110
  58.7541290  69.1986740  50.2063220  58.2713610  68.5892800  51.5053420
  58.9790060  85.9704340  48.9797310  58.3850380  85.8389040  49.7187350
  58.9713900  85.1342480  48.5139410  68.4245080  69.2636570  47.1827340
  67.5504920  69.5971680  46.9800270  68.3155830  68.7909750  48.0079210
  69.3317060  71.4707440  48.5669060  69.0030420  70.6559200  48.1870790
  70.2799360  71.4277250  48.4434750  71.7851670  87.2419480  45.5406630
  71.3254640  87.9935290  45.1664650  71.1564130  86.5225950  45.4821430
  58.6102290  83.3362720  47.9305350  57.8836350  82.7168010  47.8631300
  58.6711440  83.7303330  47.0603430  62.2147390  85.5507720  44.7154760
  62.7312410  84.9395080  44.1903020  62.8644770  86.0536500  45.2065770
  64.9542890  86.4416210  45.5423740  65.2420700  86.1870510  44.6656750
  65.4666110  85.8893570  46.1329310  72.5879540  70.5144750  42.1778160
  72.5267940  69.5705970  42.0309180  73.3671570  70.6224840  42.7231620
  56.8932290  86.6537110  41.1402110  56.7254330  86.0207790  41.8384000
  56.0266800  86.8596510  40.7896300  58.4994990  85.3470340  38.5852250
  57.9742610  85.7278370  37.8814210  58.4239570  85.9721110  39.3061960
  65.0215250  87.3632310  52.9091940  65.9482560  87.1276580  52.9527900
  65.0065680  88.1904310  52.4277970  73.2560310  86.9057880  39.9066190
  73.4312500  86.2195620  39.2627110  72.5581880  87.4304930  39.5142860
  62.2078860  70.0277060  52.6733820  61.9263130  70.5310660  51.9094640
  62.5898560  69.2298810  52.3075950  61.0987960  87.2952720  37.4601500
  61.8306780  87.0112000  36.9125390  61.3581630  87.0566000  38.3500880
  60.2602750  83.4117450  37.4647830  59.6311630  83.8802550  38.0133660
  60.3750580  82.5666670  37.8994020  68.8094320  69.4430640  53.2514290
  68.6959770  69.7625250  54.1465810  69.6264060  69.8443150  52.9551570
  71.5892810  86.5902170  52.7332980  72.3818130  86.0951400  52.5258940
  71.8825960  87.2692310  53.3408590  67.7152470  77.4623110  23.6149030
  67.6346520  76.5477720  23.3440740  67.3016890  77.9590180  22.9088740
  65.8470510  79.2402130  25.4958300  65.0712610  78.7602570  25.7856870
  66.4983440  78.5607780  25.3214460  59.8636340  79.5521940  26.3734060
  59.0321220  79.2970650  26.7730570  60.4717320  79.6232710  27.1091980
  69.8677940  83.6462320  24.2757430  69.4059470  82.8749560  24.6044600
  70.6803490  83.6728390  24.7809880  59.8437600  83.5862030  26.5692080
  60.1465640  82.6959770  26.3902300  60.5881190  84.1432250  26.3414330
  58.2728290  74.5123830  20.1576450  57.3844990  74.8539800  20.0556330
  58.5569480  74.3124150  19.2657280  66.0941250  85.9320330  23.8961420
  65.4752690  86.3877830  23.3255860  66.9493030  86.0871790  23.4951120
  65.2879500  81.9159320  25.5028460  65.2187780  80.9749260  25.3417590
  66.0499360  82.0060730  26.0751030  66.3184670  74.7229700  25.7297390
  66.6949490  73.8501580  25.6171060  66.2204180  75.0588400  24.8387830
  60.4489680  73.0955330  21.1914830  60.5556430  73.9959060  21.4983590
  59.5382040  73.0473300  20.9009480  70.1008790  72.2180140  22.6625730
  70.9218410  71.7276710  22.7051210  70.1342870  72.8077800  23.4157570
  74.3908340  74.2346890  29.2269360  73.6860510  74.6228600  28.7084470
  74.6566260  74.9297180  29.8290290  66.9604600  80.8159570  21.2893330
  66.3421870  81.2809020  20.7256050  67.4727850  81.5087050  21.7062840
  61.8236360  80.3435440  27.9676930  61.4905740  80.9704360  28.6098000
  62.0003040  80.8697320  27.1878600  70.3370270  74.1580520  25.4353270
  69.6325840  74.4465410  26.0156380  70.6982430  74.9680630  25.0752830
  61.0355460  82.3116240  29.7826110  61.6529460  82.9867320  29.5010560
  60.1748580  82.7204220  29.6913610  56.3287800  81.5016100  18.6632960
  55.9515780  81.9903200  17.9317860  56.5860870  82.1741380  19.2939490
  71.9533050  83.7755650  27.6980750  71.2696570  84.4454760  27.6897420
  72.4927340  83.9736300  26.9325610  73.4057190  73.6035310  25.8262480
  72.4582100  73.6374290  25.9577910  73.7307180  74.4174260  26.2111840
  63.9376730  69.9032490  24.1218470  64.2451710  69.3479380  23.4053970
  63.0077430  70.0376950  23.9391460  69.4891790  85.6199780  26.4125930
  69.5018950  85.2162070  25.5448190  68.9367010  86.3947070  26.3087360
  70.7837210  82.3416000  21.5016100  70.6733540  81.3990330  21.6265520
  70.7805460  82.7031640  22.3878860  68.8877230  80.5229620  27.7408540
  69.3046020  80.3089730  26.9062000  69.6117050  80.7802410  28.3117160
  66.3257490  77.9681320  20.8578590  65.3986770  77.9018700  21.0867060
  66.4782310  78.9061450  20.7433830  66.3126570  74.2398320  17.8545750
  65.3730240  74.4012280  17.9398210  66.6309830  74.9584000  17.3081740
  72.8339330  78.9216840  27.8324780  72.0057960  78.9909930  27.3574910
  73.4289810  79.5071150  27.3640610  70.3554780  79.5301620  21.3613840
  69.7367200  79.1921170  20.7140140  70.3379230  78.8861380  22.0693030
  69.7981340  75.7086160  28.7779650  69.3852520  76.5339870  29.0319640
  69.0657290  75.1231200  28.5856010  61.9314130  78.4946060  23.6398320
  61.5271130  77.7823310  23.1444220  62.0177250  78.1499300  24.5286360
  62.3995830  82.1813620  25.8037530  62.1024120  81.5759090  25.1245310
  63.3495650  82.2190930  25.6926890  70.4881440  85.7545490  29.4660630
  70.0112000  86.5617680  29.2733240  69.8043230  85.1023820  29.6186840
  61.4914260  81.9195310  32.4545330  60.5942790  82.1435280  32.7018730
  61.5167130  82.0430250  31.5056730  68.5319480  78.7688430  18.3686590
  68.9712760  77.9310860  18.2224410  69.2447900  79.4017830  18.4550730
  60.3185480  78.7908630  31.0302700  60.1793250  79.6631430  31.3990100
  59.4366840  78.4481440  30.8850640  66.6414860  83.7084500  22.3367830
  67.0810770  84.4508830  21.9223220  66.5801750  83.9511070  23.2606790
  62.1165830  84.7330330  33.2387850  62.0881260  85.1373280  32.3716280
  61.9530800  83.8040690  33.0759450  72.1136620  70.0231240  16.6827630
  71.8009280  70.1158070  17.5826700  72.8749090  70.6012270  16.6325060
  58.6318760  77.3891040  21.1404970  58.5116360  78.1153130  20.5286240
  58.3219650  76.6193950  20.6632880  74.0680650  85.5157430  34.5352020
  74.5440370  85.9940320  35.2141100  74.6887810  85.4474920  33.8097520
  56.2704130  80.5606180  26.9473610  56.3484550  80.6954950  26.0029330
  56.8845810  79.8522070  27.1401730  57.5151760  82.2606370  23.3579790
  57.1079840  82.4020960  22.5033390  58.4064770  81.9766530  23.1551000
  73.4713900  82.7070280  31.6952030  73.5976960  82.4682160  30.7769210
  73.5135280  81.8754820  32.1674110  67.3330640  86.4098280  30.2646840
  67.8475310  86.3206290  31.0669270  66.4899720  86.7557980  30.5574750
  69.3085040  86.6953620  19.6930840  69.1486180  86.4056560  20.5912670
  69.1431750  85.9193750  19.1576070  61.7873420  86.4752150  21.4702460
  61.6115900  85.5587690  21.2570260  60.9329160  86.8339440  21.7100260
  69.0111170  84.2041180  18.2528840  68.3176330  84.2018470  17.5931120
  69.7534030  83.7800500  17.8223010  68.5761100  85.8303890  22.3277330
  69.0318050  85.0493270  22.6415950  68.9153620  86.5410710  22.8718510
  73.3237910  74.7602740  32.6601770  72.7082180  75.2682410  32.1317230
  73.0034330  73.8601070  32.6027710  56.3263650  81.6020350  29.4868070
  56.4894690  81.1325710  28.6687440  56.7916100  81.0943910  30.1516910
  70.3856740  74.8203580  31.2560620  69.5350330  74.5209330  31.5769690
  70.2258530  75.0645590  30.3444440  67.4806450  76.3205330  33.3559410
  67.8059860  75.4869080  33.0161640  68.2686780  76.8433850  33.5037740
  64.2141240  70.3536810  19.4034470  63.5895420  70.3496680  20.1287780
  64.1271360  69.4867770  19.0070440  60.8896640  75.8559680  22.2509890
  60.6637560  75.6396850  23.1556510  60.1089170  76.2888140  21.9055860
  68.1194400  75.8623050  20.8500540  67.5203290  76.5858850  20.6664160
  68.6674010  75.7999830  20.0676990  66.7259270  74.4986590  22.8803820
  67.1188840  74.8158790  22.0672510  67.0876120  73.6198470  22.9948340
  55.9493670  75.0307510  16.3136740  55.8668340  75.9738270  16.4551730
  55.5976730  74.8882420  15.4349090  67.3114410  77.0892340  26.9754600
  66.5795530  77.5979150  27.3244700  66.9138750  76.2722320  26.6743380
  59.5994180  73.6473030  24.3401300  59.2594230  74.1248260  25.0968350
  58.8371500  73.1938150  23.9802400  63.8111950  74.7658620  18.3713850
  63.9324770  74.7245100  19.3199670  63.4260460  75.6282770  18.2160580
  67.7740320  72.5426020  26.3877540  67.7913060  72.9934670  27.2319390
  67.5255900  71.6431660  26.6010980  62.8233450  77.0759760  17.7697150
  62.2550350  76.6278010  17.1433060  63.5322450  77.4352540  17.2362300
  57.9002630  80.9771780  31.6463880  57.5157420  80.3365450  32.2446840
  58.2114820  81.6807900  32.2158610  56.9140260  72.5692010  23.2565970
  56.6287180  72.2047680  24.0944590  56.8519120  71.8372470  22.6429110
  60.3680930  81.0717950  20.0423560  59.5943190  80.5315570  19.8822280
  61.0975560  80.5524560  19.7041320  71.1268910  80.0683310  25.8349950
  71.8468030  80.5638600  25.4446060  70.9250730  79.3901200  25.1903820
  66.5878850  71.4621270  19.9779340  65.7743460  70.9634440  19.9024650
  66.3940800  72.3019520  19.5615690  66.5087710  80.1392370  31.7218950
  66.4425020  79.2188040  31.4676540  65.8792850  80.2367810  32.4363590
  69.3027240  75.8340920  18.2741500  70.1906860  76.1458150  18.0992840
  69.2732330  74.9613170  17.8822080  60.4118330  80.7398330  23.6802370
  60.9297000  79.9366590  23.6259260  59.9602350  80.6777470  24.5219200
  65.2987830  82.0064610  18.9529670  65.6403530  82.7506840  18.4572990
  64.4700540  82.3195730  19.3154500  66.4404440  82.9612940  31.4722750
  66.4548980  82.0293900  31.2541660  65.7329540  83.0472700  32.1112520
  71.5741510  77.1452760  17.7421360  71.4905230  77.5766980  16.8917800
  72.2935700  77.6051110  18.1748180  72.6515650  79.6020280  30.8191330
  71.9263840  80.1949060  30.6220720  73.1791110  79.5943820  30.0204700
  72.6028760  83.9995020  20.4703490  71.9604920  83.3450640  20.7447210
  72.2159420  84.4050110  19.6944160  68.1815240  81.3280450  24.3175180
  68.5339060  80.7308580  23.6576550  67.2977570  81.0024680  24.4883430
  64.2678520  82.0878140  21.7245590  64.9549650  82.6347350  22.1053180
  63.4810940  82.6318870  21.7595200  56.4070920  77.7050960  17.2162670
  57.2765770  77.9875760  17.4998590  55.9161240  78.5186830  17.1011480
  63.5705730  79.0924170  21.3370950  64.0268510  79.9029420  21.5631140
  63.2193940  78.7747310  22.1689440  65.8738340  84.6030510  28.5663250
  66.5180560  84.8089890  29.2436670  66.2367780  83.8418910  28.1134100
  59.4717510  69.4361820  21.8093470  59.3432140  69.4279720  22.7578390
  58.6479530  69.7744910  21.4584480  67.1470420  82.6062860  27.2840700
  67.7892650  81.9056020  27.3972870  67.6719770  83.3861300  27.1037590
  70.9926140  82.8911480  17.0079840  70.7663720  82.1741920  17.6004480
  70.6022340  82.6423920  16.1701590  68.9208040  83.4057760  30.4876760
  69.2564280  83.9924450  31.1654680  68.0008380  83.2750470  30.7174550
  56.7742170  86.9178340  17.7824300  57.1339810  87.5167680  17.1281570
  56.6334510  87.4638230  18.5559330  70.5742390  80.8083420  18.6694000
  70.2864090  81.2696110  19.4571880  71.3694560  80.3481190  18.9378220
  56.7584030  85.1833200  32.2566700  56.8675150  84.2427940  32.1162090
  56.1064590  85.4487950  31.6080430  64.7496620  83.4549090  33.6564820
  64.4293490  82.7358330  34.2010510  64.0754980  84.1304160  33.7300880
  62.7910790  84.3009540  18.5997970  62.7820890  85.0339230  17.9842480
  61.8709150  84.0541120  18.6924930  58.3917430  79.5224430  19.3444730
  57.7845380  80.2623330  19.3540030  58.8666780  79.6123790  18.5182930
  67.9650220  73.6875250  29.0201620  68.3331040  72.8670460  29.3481190
  67.1048420  73.7477140  29.4357270  71.3312250  72.6432190  19.8289180
  70.7025410  72.7477860  19.1147410  70.8364170  72.8628970  20.6183060
  65.7770390  84.3637780  17.2623160  65.8782370  84.1601770  16.3325140
  64.8772130  84.1096060  17.4670940  63.2996280  74.9218140  21.2447060
  62.5912430  75.3904480  21.6860670  63.5840760  74.2640150  21.8792250
  67.3311710  71.6468800  22.6842850  67.2079490  71.6654930  21.7352360
  68.2796270  71.6947740  22.8041250  64.4188500  86.8824100  21.9570830
  64.6730000  86.8445490  21.0350200  63.4700980  86.7557430  21.9499080
  61.5031300  73.2303220  18.6197770  62.3521830  73.6673370  18.5537960
  61.1362570  73.5423480  19.4469830  72.1319070  72.5582800  30.0867980
  71.6292670  73.2988200  30.4261790  72.9475730  72.9466800  29.7704770
  70.4241080  77.8015980  23.5329340  69.4831220  77.8166210  23.7077030
  70.7385150  77.0151940  23.9789640  60.4022720  79.4835580  17.0933300
  61.1685990  79.3716940  17.6558730  60.4797410  78.7873550  16.4410070
  59.0969480  76.9160650  17.7766190  59.1773070  75.9688160  17.8883590
  59.9889230  77.2467530  17.8826850  72.4266660  84.9724830  25.2083600
  72.5514080  85.7956000  25.6807410  73.2932220  84.7615560  24.8607750
  59.8984190  87.0656040  24.8800730  60.6346670  86.5171500  25.1509300
  60.2825110  87.9312050  24.7406720  56.7829670  83.1329610  20.7542240
  55.8569450  83.3750750  20.7447650  57.2486100  83.9603870  20.6326990
  58.9042470  86.2502110  34.0686310  59.7055200  86.5714160  34.4821710
  58.3894290  85.8897690  34.7906220  63.0086500  86.2386350  16.7026300
  63.8015110  86.5275180  16.2508090  62.4890850  85.8078520  16.0238780
  67.7407100  82.3581980  34.0161720  67.1345260  82.3813580  33.2757470
  67.4361210  81.6265020  34.5528970  69.1707470  86.0862270  32.6271130
  70.1229220  86.0020290  32.5771370  69.0235690  86.7503980  33.3004920
  72.0616670  85.4656480  18.1263040  71.7758180  85.0521620  17.3117220
  71.8636220  86.3944190  18.0063560  63.5263900  81.4589760  16.5668650
  63.4214540  80.8442110  17.2930030  63.3588120  80.9355650  15.7831660
  63.6778220  80.1446560  32.5457880  62.9123890  80.7131560  32.4612550
  63.8594180  79.8522770  31.6526110  66.7666630  80.5209790  17.1710640
  66.2176730  80.9679090  17.8153380  67.3885890  80.0159040  17.6948310
  70.8201570  81.8751890  33.1032900  71.5611040  82.2127650  32.6000360
  70.0574250  82.0443950  32.5502670  62.4341750  79.4800710  19.0675940
  62.8558170  79.3140580  19.9107330  62.5592590  78.6700940  18.5731080
  64.9469390  78.5038320  16.3153040  65.4675050  77.7887340  15.9494190
  65.5937790  79.1424190  16.6153550  69.4947230  79.9266720  31.6388110
  69.9088250  80.0811800  32.4878530  68.5598230  80.0521940  31.8013890
  69.9669400  77.2662880  33.6427260  70.5490170  76.5115200  33.5547740
  70.1431170  77.7970320  32.8658740  64.2562460  79.8787200  29.6084040
  64.6750570  80.7219930  29.4360280  63.3371090  80.0159240  29.3790820
  66.5926360  77.6103380  30.9921880  66.7122570  77.0144520  31.7316720
  67.4520360  77.6473070  30.5723180  68.9314260  78.1640570  29.5684390
  68.4049480  78.6883190  28.9649530  69.2745600  78.7967960  30.1994120
  61.3300650  75.5533940  16.0134100  61.1289710  74.6901300  16.3747440
  61.1592700  75.4667300  15.0755700  62.1069880  86.1840210  30.7241770
  61.5690970  86.9086270  30.4050470  62.3603840  85.7070550  29.9339110
  68.1788560  73.7690540  32.4830720  67.4904080  73.1072080  32.4180710
  68.8994580  73.3228810  32.9279180  68.8088960  70.3642170  18.5420980
  69.0891250  69.5210070  18.8980400  68.0354690  70.5965280  19.0559730
  60.1283450  72.6534560  16.0011980  60.4309350  72.6601990  15.0931130
  60.8678040  72.3032420  16.4979640  64.9632090  87.4191420  30.9828420
  64.8890790  88.3226560  31.2900790  64.0610930  87.1003320  30.9550490
  63.3468380  71.5969180  16.9868180  62.9990380  70.9193170  16.4070630
  63.5481150  71.1358690  17.8011570  65.5117420  86.5849930  18.6054780
  66.4068210  86.9234900  18.6273540  65.5435050  85.8629340  17.9779060
  59.1513580  81.9576980  16.8341780  59.5888450  82.5006650  17.4899360
  59.6361310  81.1323930  16.8438120  56.3659380  84.7466010  24.2862040
  56.6962390  83.8787070  24.0540680  56.7950380  84.9524530  25.1167000
  60.9621300  83.0775020  21.9464010  60.6616840  82.9539990  22.8467920
  60.8558790  82.2183610  21.5379740  56.8549590  85.6136600  27.0243670
  56.4180580  85.7937400  27.8567820  57.4227270  86.3711220  26.8825390
  72.4911770  85.1153600  31.3120980  71.8913760  85.1746160  30.5684900
  72.6205670  84.1758580  31.4417830  73.7313220  82.8571420  16.6490690
  72.9006180  82.9248070  17.1197920  73.9085050  83.7475540  16.3457550
  73.1869680  79.6018900  19.1524890  73.9488590  80.1715550  19.2584580
  73.2024050  79.0346100  19.9233200  74.1929650  80.4569000  23.9966820
  74.5638480  79.6736320  23.5902790  74.8331580  81.1458100  23.8184120
  71.1763410  81.8405580  29.4097140  70.3623250  82.2702740  29.6722930
  71.5837610  82.4523990  28.7966190  73.2388850  79.8953270  16.3097410
  73.5137690  80.8032150  16.1816630  73.0499590  79.8315800  17.2459400
  69.6364460  72.9198120  17.6051040  70.0549340  72.7329100  16.7647700
  69.3300520  72.0677170  17.9153970  73.1354190  77.8322260  21.3026840
  72.7597790  77.0650190  20.8708130  72.4057310  78.2144960  21.7901770
  72.5253810  76.9793780  30.9366360  72.2939900  76.7506530  30.0364310
  72.7858360  77.8993330  30.8911250  70.9641880  72.2050210  33.7146060
  71.8412060  72.2133610  34.0980060  70.9762720  71.4681050  33.1038410
  55.9012100  75.3355760  19.3257880  54.9976180  75.5985960  19.1509540
  56.3852720  75.6066930  18.5457840  72.4105150  76.0579750  24.6034080
  72.9342630  75.5642400  23.9724250  72.9964570  76.1930110  25.3481650
  72.5894870  76.1419620  28.1253630  71.6397580  76.1083160  28.2398620
  72.7707880  77.0519730  27.8903400  58.4439310  74.3921300  17.2352260
  59.1531010  73.9704520  16.7499540  57.7279250  74.4596530  16.6035610
  58.0913470  70.4460630  16.2754910  58.8141600  70.9869570  16.5936130
  58.3637990  70.1724050  15.3996450  71.9005120  75.3153100  20.5426490
  72.3964240  75.0823970  21.3275370  71.7021190  74.4764940  20.1264130
  73.3292280  73.9514050  23.0764170  73.2191560  73.7970090  24.0146440
  74.0899870  73.4234990  22.8339580  71.6758000  69.8908180  29.5347170
  72.3130220  70.5042320  29.9006360  71.8232890  69.9268840  28.5896400
  74.2182550  71.7821970  16.3170310  75.1431860  71.6503150  16.1088600
  74.1958340  71.8614790  17.2706760  74.2921040  72.5532630  18.9427020
  73.4972540  72.4877750  19.4719930  74.4964320  73.4883270  18.9312370
  71.2339460  86.5924180  22.9365410  71.8298530  86.2708750  22.2599830
  71.4917610  86.1196000  23.7278680  59.1402030  83.0242090  33.0856040
  59.0971660  82.6535000  33.9670500  59.2713040  83.9619660  33.2257860
  62.8408060  84.5801680  28.6865760  62.5999420  84.8476240  27.7996280
  63.7810700  84.7507410  28.7416620  74.1012220  86.5996060  29.4876400
  73.6070500  86.9964930  28.7703530  73.4925510  85.9745270  29.8813680
  58.9790060  85.9704340  30.2053820  58.3850380  85.8389040  30.9443860
  58.9713900  85.1342480  29.7395920  69.3317060  71.4707440  29.7925570
  69.0030420  70.6559200  29.4127300  70.2799360  71.4277250  29.6691260
  71.7851670  87.2419480  26.7663140  71.3254640  87.9935290  26.3921160
  71.1564130  86.5225950  26.7077940  58.6102290  83.3362720  29.1561860
  57.8836350  82.7168010  29.0887810  58.6711440  83.7303330  28.2859940
  62.2147390  85.5507720  25.9411270  62.7312410  84.9395080  25.4159530
  62.8644770  86.0536500  26.4322280  64.9542890  86.4416210  26.7680250
  65.2420700  86.1870510  25.8913260  65.4666110  85.8893570  27.3585820
  70.7240970  70.8829510  25.3925850  71.1649060  70.8274610  24.5447450
  70.4548560  71.7987520  25.4636030  72.5879540  70.5144750  23.4034670
  72.5267940  69.5705970  23.2565690  73.3671570  70.6224840  23.9488130
  56.8932290  86.6537110  22.3658620  56.7254330  86.0207790  23.0640510
  56.0266800  86.8596510  22.0152810  57.5160310  70.4853890  19.8690480
  58.2739670  70.5982770  19.2954510  57.0537480  71.3223090  19.8233910
  64.0574120  72.5993160  22.8592790  63.2448630  72.2250050  22.5188670
  64.5615760  71.8438240  23.1613980  68.5599100  69.2635610  24.0975860
  69.1628470  69.8355820  24.5724380  67.8192090  69.8275050  23.8749760
  71.7033700  69.6657170  19.3716140  71.8984330  70.5640620  19.6383570
  70.9163570  69.4344250  19.8649090  58.4994990  85.3470340  19.8108760
  57.9742610  85.7278370  19.1070720  58.4239570  85.9721110  20.5318470
  59.8885460  71.0117940  18.4092450  60.4178220  70.2247740  18.2800400
  60.5213780  71.6909130  18.6427980  62.0823300  70.7493080  21.4637840
  61.4526040  70.0480390  21.6307970  61.5428440  71.5097210  21.2471000
  65.0215250  87.3632310  34.1348450  65.9482560  87.1276580  34.1784410
  65.0065680  88.1904310  33.6534480  73.2560310  86.9057880  21.1322700
  73.4312500  86.2195620  20.4883620  72.5581880  87.4304930  20.7399370
  61.0987960  87.2952720  18.6858010  61.8306780  87.0112000  18.1381900
  61.3581630  87.0566000  19.5757390  60.2602750  83.4117450  18.6904340
  59.6311630  83.8802550  19.2390170  60.3750580  82.5666670  19.1250530
  71.5892810  86.5902170  33.9589490  72.3818130  86.0951400  33.7515450
  71.8825960  87.2692310  34.5665100  67.7152470  77.4623110   4.8405540
  67.6346520  76.5477720   4.5697250  67.3016890  77.9590180   4.1345250
  65.8470510  79.2402130   6.7214810  65.0712610  78.7602570   7.0113380
  66.4983440  78.5607780   6.5470970  59.8636340  79.5521940   7.5990570
  59.0321220  79.2970650   7.9987080  60.4717320  79.6232710   8.3348490
  69.8677940  83.6462320   5.5013940  69.4059470  82.8749560   5.8301110
  70.6803490  83.6728390   6.0066390  59.8437600  83.5862030   7.7948590
  60.1465640  82.6959770   7.6158810  60.5881190  84.1432250   7.5670840
  56.2361300  77.1129480   7.2672660  56.8077410  76.3451680   7.2676300
  56.2362840  77.4118240   6.3579270  66.0941250  85.9320330   5.1217930
  65.4752690  86.3877830   4.5512370  66.9493030  86.0871790   4.7207630
  65.2879500  81.9159320   6.7284970  65.2187780  80.9749260   6.5674100
  66.0499360  82.0060730   7.3007540  57.4786170  72.5213840   9.0541590
  57.2989010  71.6239590   9.3344350  57.0766250  73.0685710   9.7288540
  66.3184670  74.7229700   6.9553900  66.6949490  73.8501580   6.8427570
  66.2204180  75.0588400   6.0644340  60.4489680  73.0955330   2.4171340
  60.5556430  73.9959060   2.7240100  59.5382040  73.0473300   2.1265990
  70.1008790  72.2180140   3.8882240  70.9218410  71.7276710   3.9307720
  70.1342870  72.8077800   4.6414080  58.0972840  75.0174340   7.6623930
  58.7782950  75.2812710   8.2811330  57.7820890  74.1775210   7.9961940
  62.2897410  76.0641700   6.7496520  62.7975630  76.5622670   7.3901540
  62.8210650  75.2876900   6.5735880  74.3908340  74.2346890  10.4525870
  73.6860510  74.6228600   9.9340980  74.6566260  74.9297180  11.0546800
  60.5733510  70.7040260  11.0159940  60.5751950  71.2212650  10.2105840
  59.7437820  70.2270440  10.9929870  66.9604600  80.8159570   2.5149840
  66.3421870  81.2809020   1.9512560  67.4727850  81.5087050   2.9319350
  61.8236360  80.3435440   9.1933440  61.4905740  80.9704360   9.8354510
  62.0003040  80.8697320   8.4135110  70.3370270  74.1580520   6.6609780
  69.6325840  74.4465410   7.2412890  70.6982430  74.9680630   6.3009340
  60.2548840  72.4150220   9.0230390  60.5965650  73.2592270   8.7284260
  59.3164650  72.5633960   9.1395730  61.0355460  82.3116240  11.0082620
  61.6529460  82.9867320  10.7267070  60.1748580  82.7204220  10.9170120
  71.9533050  83.7755650   8.9237260  71.2696570  84.4454760   8.9153930
  72.4927340  83.9736300   8.1582120  73.4057190  73.6035310   7.0518990
  72.4582100  73.6374290   7.1834420  73.7307180  74.4174260   7.4368350
  63.9376730  69.9032490   5.3474980  64.2451710  69.3479380   4.6310480
  63.0077430  70.0376950   5.1647970  69.4891790  85.6199780   7.6382440
  69.5018950  85.2162070   6.7704700  68.9367010  86.3947070   7.5343870
  70.7837210  82.3416000   2.7272610  70.6733540  81.3990330   2.8522030
  70.7805460  82.7031640   3.6135370  68.8877230  80.5229620   8.9665050
  69.3046020  80.3089730   8.1318510  69.6117050  80.7802410   9.5373670
  66.3257490  77.9681320   2.0835100  65.3986770  77.9018700   2.3123570
  66.4782310  78.9061450   1.9690340  72.8339330  78.9216840   9.0581290
  72.0057960  78.9909930   8.5831420  73.4289810  79.5071150   8.5897120
  70.3554780  79.5301620   2.5870350  69.7367200  79.1921170   1.9396650
  70.3379230  78.8861380   3.2949540  69.7981340  75.7086160  10.0036160
  69.3852520  76.5339870  10.2576150  69.0657290  75.1231200   9.8112520
  61.9314130  78.4946060   4.8654830  61.5271130  77.7823310   4.3700730
  62.0177250  78.1499300   5.7542870  62.3995830  82.1813620   7.0294040
  62.1024120  81.5759090   6.3501820  63.3495650  82.2190930   6.9183400
  60.6442750  75.2689270   8.6453870  61.1957340  75.3784610   7.8707120
  61.1586260  75.6426870   9.3609100  70.4881440  85.7545490  10.6917140
  70.0112000  86.5617680  10.4989750  69.8043230  85.1023820  10.8443350
  61.4914260  81.9195310  13.6801840  60.5942790  82.1435280  13.9275240
  61.5167130  82.0430250  12.7313240  60.3185480  78.7908630  12.2559210
  60.1793250  79.6631430  12.6246610  59.4366840  78.4481440  12.1107150
  66.6414860  83.7084500   3.5624340  67.0810770  84.4508830   3.1479730
  66.5801750  83.9511070   4.4863300  62.1165830  84.7330330  14.4644360
  62.0881260  85.1373280  13.5972790  61.9530800  83.8040690  14.3015960
  58.6318760  77.3891040   2.3661480  58.5116360  78.1153130   1.7542750
  58.3219650  76.6193950   1.8889390  74.0680650  85.5157430  15.7608530
  74.5440370  85.9940320  16.4397610  74.6887810  85.4474920  15.0354030
  56.2704130  80.5606180   8.1730120  56.3484550  80.6954950   7.2285840
  56.8845810  79.8522070   8.3658240  57.5151760  82.2606370   4.5836300
  57.1079840  82.4020960   3.7289900  58.4064770  81.9766530   4.3807510
  73.4713900  82.7070280  12.9208540  73.5976960  82.4682160  12.0025720
  73.5135280  81.8754820  13.3930620  67.3330640  86.4098280  11.4903350
  67.8475310  86.3206290  12.2925780  66.4899720  86.7557980  11.7831260
  61.7873420  86.4752150   2.6958970  61.6115900  85.5587690   2.4826770
  60.9329160  86.8339440   2.9356770  68.5761100  85.8303890   3.5533840
  69.0318050  85.0493270   3.8672460  68.9153620  86.5410710   4.0975020
  73.3237910  74.7602740  13.8858280  72.7082180  75.2682410  13.3573740
  73.0034330  73.8601070  13.8284220  56.3263650  81.6020350  10.7124580
  56.4894690  81.1325710   9.8943950  56.7916100  81.0943910  11.3773420
  61.0982420  70.7326110   5.7485150  60.6550570  71.5135650   5.4169670
  61.6567410  71.0556000   6.4556090  65.3852230  73.5994630  11.3520470
  64.9231600  73.8077650  12.1640410  64.9830340  72.7853980  11.0491140
  70.3856740  74.8203580  12.4817130  69.5350330  74.5209330  12.8026200
  70.2258530  75.0645590  11.5700950  67.4806450  76.3205330  14.5815920
  67.8059860  75.4869080  14.2418150  68.2686780  76.8433850  14.7294250
  63.1358320  71.2773440   7.6074750  63.4330650  72.1836270   7.5266770
  63.6843880  70.7892220   6.9934320  60.8896640  75.8559680   3.4766400
  60.6637560  75.6396850   4.3813020  60.1089170  76.2888140   3.1312370
  63.3295850  76.7545260  14.1426670  63.2339450  75.8139990  13.9927070
  64.1727830  76.9760330  13.7474740  66.7259270  74.4986590   4.1060330
  67.1188840  74.8158790   3.2929020  67.0876120  73.6198470   4.2204850
  58.4606390  73.1658930  12.2960450  58.0669780  74.0134140  12.5033230
  57.7724790  72.5285300  12.4869090  65.0351440  73.2493900  15.3657190
  64.3449760  73.0566100  16.0003280  65.7783740  73.5328540  15.8981490
  55.7623440  71.0887390   6.3290530  55.4736490  71.6590250   7.0415510
  56.5069200  70.6091840   6.6921760  67.3114410  77.0892340   8.2011110
  66.5795530  77.5979150   8.5501210  66.9138750  76.2722320   7.8999890
  63.7491800  73.7646540   6.6063600  63.7527860  73.3236490   5.7568140
  64.6442920  74.0863870   6.7135420  59.5994180  73.6473030   5.5657810
  59.2594230  74.1248260   6.3224860  58.8371500  73.1938150   5.2058910
  67.7740320  72.5426020   7.6134050  67.7913060  72.9934670   8.4575900
  67.5255900  71.6431660   7.8267490  71.2011070  69.9558200  13.4520430
  71.5256840  69.2247860  13.9778410  71.2367580  69.6371840  12.5501420
  57.9002630  80.9771780  12.8720390  57.5157420  80.3365450  13.4703350
  58.2114820  81.6807900  13.4415120  64.0499770  77.8248320   8.3529010
  64.4169900  77.3506890   9.0990350  63.8604830  78.6989890   8.6937350
  56.9140260  72.5692010   4.4822480  56.6287180  72.2047680   5.3201100
  56.8519120  71.8372470   3.8685620  61.8399140  76.8656960  10.6713220
  61.5356210  77.7448940  10.8963580  62.7945600  76.9256750  10.7070660
  71.1268910  80.0683310   7.0606460  71.8468030  80.5638600   6.6702570
  70.9250730  79.3901200   6.4160330  66.5087710  80.1392370  12.9475460
  66.4425020  79.2188040  12.6933050  65.8792850  80.2367810  13.6620100
  60.4118330  80.7398330   4.9058880  60.9297000  79.9366590   4.8515770
  59.9602350  80.6777470   5.7475710  57.8962870  77.7059700  11.8184580
  57.5377810  78.3713550  12.4057920  57.6017430  76.8743250  12.1897200
  61.0975990  78.1643940  14.7024130  60.7976130  78.3101120  13.8051950
  61.8687230  77.6049230  14.6097520  66.4404440  82.9612940  12.6979260
  66.4548980  82.0293900  12.4798170  65.7329540  83.0472700  13.3369030
  72.6515650  79.6020280  12.0447840  71.9263840  80.1949060  11.8477230
  73.1791110  79.5943820  11.2461210  68.1815240  81.3280450   5.5431690
  68.5339060  80.7308580   4.8833060  67.2977570  81.0024680   5.7139940
  64.2678520  82.0878140   2.9502100  64.9549650  82.6347350   3.3309690
  63.4810940  82.6318870   2.9851710  63.5705730  79.0924170   2.5627460
  64.0268510  79.9029420   2.7887650  63.2193940  78.7747310   3.3945950
  65.8738340  84.6030510   9.7919760  66.5180560  84.8089890  10.4693180
  66.2367780  83.8418910   9.3390610  59.4717510  69.4361820   3.0349980
  59.3432140  69.4279720   3.9834900  58.6479530  69.7744910   2.6840990
  67.1470420  82.6062860   8.5097210  67.7892650  81.9056020   8.6229380
  67.6719770  83.3861300   8.3294100  68.9208040  83.4057760  11.7133270
  69.2564280  83.9924450  12.3911190  68.0008380  83.2750470  11.9431060
  56.4711440  71.1952940  12.4956680  55.7569960  71.3949860  13.1009290
  56.8906480  70.4192510  12.8671480  56.7584030  85.1833200  13.4823210
  56.8675150  84.2427940  13.3418600  56.1064590  85.4487950  12.8336940
  64.7496620  83.4549090  14.8821330  64.4293490  82.7358330  15.4267020
  64.0754980  84.1304160  14.9557390  67.9650220  73.6875250  10.2458130
  68.3331040  72.8670460  10.5737700  67.1048420  73.7477140  10.6613780
  63.2996280  74.9218140   2.4703570  62.5912430  75.3904480   2.9117180
  63.5840760  74.2640150   3.1048760  64.9252210  76.3414840  10.4696100
  65.4237460  76.8160660  11.1347950  65.0675160  75.4178360  10.6766130
  67.3311710  71.6468800   3.9099360  67.2079490  71.6654930   2.9608870
  68.2796270  71.6947740   4.0297760  64.4188500  86.8824100   3.1827340
  64.6730000  86.8445490   2.2606710  63.4700980  86.7557430   3.1755590
  72.1319070  72.5582800  11.3124490  71.6292670  73.2988200  11.6518300
  72.9475730  72.9466800  10.9961280  70.4241080  77.8015980   4.7585850
  69.4831220  77.8166210   4.9333540  70.7385150  77.0151940   5.2046150
  72.4266660  84.9724830   6.4340110  72.5514080  85.7956000   6.9063920
  73.2932220  84.7615560   6.0864260  59.8984190  87.0656040   6.1057240
  60.6346670  86.5171500   6.3765810  60.2825110  87.9312050   5.9663230
  56.7829670  83.1329610   1.9798750  55.8569450  83.3750750   1.9704160
  57.2486100  83.9603870   1.8583500  58.9042470  86.2502110  15.2942820
  59.7055200  86.5714160  15.7078220  58.3894290  85.8897690  16.0162730
  67.7407100  82.3581980  15.2418230  67.1345260  82.3813580  14.5013980
  67.4361210  81.6265020  15.7785480  69.1707470  86.0862270  13.8527640
  70.1229220  86.0020290  13.8027880  69.0235690  86.7503980  14.5261430
  56.6240280  78.7375570  14.2378870  57.1279300  78.1582850  14.8095100
  55.8847700  79.0215800  14.7755240  63.6778220  80.1446560  13.7714390
  62.9123890  80.7131560  13.6869060  63.8594180  79.8522770  12.8782620
  70.8201570  81.8751890  14.3289410  71.5611040  82.2127650  13.8256870
  70.0574250  82.0443950  13.7759180  58.6563360  76.8805160  15.1328940
  58.6968700  76.5819030  16.0414170  59.5108860  77.2812770  14.9736460
  60.5969170  75.4597260  13.1003430  60.0665630  74.9688210  12.4726770
  61.2657240  75.8881460  12.5661360  69.4947230  79.9266720  12.8644620
  69.9088250  80.0811800  13.7135040  68.5598230  80.0521940  13.0270400
  69.9669400  77.2662880  14.8683770  70.5490170  76.5115200  14.7804250
  70.1431170  77.7970320  14.0915250  61.0841470  72.4259630  13.1800720
  60.9898340  71.8080380  12.4551590  60.5038860  73.1525920  12.9530630
  63.8502910  70.9832870  10.2128110  63.4020210  71.0057130   9.3673660
  63.2168110  70.5851890  10.8098410  64.2562460  79.8787200  10.8340550
  64.6750570  80.7219930  10.6616790  63.3371090  80.0159240  10.6047330
  66.5926360  77.6103380  12.2178390  66.7122570  77.0144520  12.9573230
  67.4520360  77.6473070  11.7979690  68.9314260  78.1640570  10.7940900
  68.4049480  78.6883190  10.1906040  69.2745600  78.7967960  11.4250630
  62.1069880  86.1840210  11.9498280  61.5690970  86.9086270  11.6306980
  62.3603840  85.7070550  11.1595620  63.3595130  74.1524730  13.4754210
  63.9494820  73.8440580  14.1632030  62.5415370  73.6804480  13.6314110
  68.1788560  73.7690540  13.7087230  67.4904080  73.1072080  13.6437220
  68.8994580  73.3228810  14.1535690  64.9632090  87.4191420  12.2084930
  64.8890790  88.3226560  12.5157300  64.0610930  87.1003320  12.1807000
  56.3659380  84.7466010   5.5118550  56.6962390  83.8787070   5.2797190
  56.7950380  84.9524530   6.3423510  60.9621300  83.0775020   3.1720520
  60.6616840  82.9539990   4.0724430  60.8558790  82.2183610   2.7636250
  56.8549590  85.6136600   8.2500180  56.4180580  85.7937400   9.0824330
  57.4227270  86.3711220   8.1081900  72.4911770  85.1153600  12.5377490
  71.8913760  85.1746160  11.7941410  72.6205670  84.1758580  12.6674340
  56.6874020  78.1256830   4.6089060  56.0322860  77.8568470   3.9648760
  57.5251970  78.0161310   4.1591040  74.1929650  80.4569000   5.2223330
  74.5638480  79.6736320   4.8159300  74.8331580  81.1458100   5.0440630
  71.1763410  81.8405580  10.6353650  70.3623250  82.2702740  10.8979440
  71.5837610  82.4523990  10.0222700  73.1354190  77.8322260   2.5283350
  72.7597790  77.0650190   2.0964640  72.4057310  78.2144960   3.0158280
  57.7249950  78.5109400   9.1492400  58.0922990  78.4236800  10.0288420
  57.1560770  77.7475950   9.0499260  72.5253810  76.9793780  12.1622870
  72.2939900  76.7506530  11.2620820  72.7858360  77.8993330  12.1167760
  57.2765950  75.4218490  13.0550820  56.3822000  75.3885250  13.3944530
  57.8163500  75.6205280  13.8202070  70.9641880  72.2050210  14.9402570
  71.8412060  72.2133610  15.3236570  70.9762720  71.4681050  14.3294920
  72.4105150  76.0579750   5.8290590  72.9342630  75.5642400   5.1980760
  72.9964570  76.1930110   6.5738160  72.5894870  76.1419620   9.3510140
  71.6397580  76.1083160   9.4655130  72.7707880  77.0519730   9.1159910
  71.9005120  75.3153100   1.7683000  72.3964240  75.0823970   2.5531880
  71.7021190  74.4764940   1.3520640  57.7805660  69.6966820   7.4034040
  58.4281850  69.1464200   6.9629200  58.2007500  69.9509970   8.2249850
  73.3292280  73.9514050   4.3020680  73.2191560  73.7970090   5.2402950
  74.0899870  73.4234990   4.0596090  71.6758000  69.8908180  10.7603680
  72.3130220  70.5042320  11.1262870  71.8232890  69.9268840   9.8152910
  71.2339460  86.5924180   4.1621920  71.8298530  86.2708750   3.4856340
  71.4917610  86.1196000   4.9535190  57.5337660  69.8522490  10.1459360
  57.1852480  70.3086310  10.9117540  57.2025360  68.9579620  10.2281790
  59.1402030  83.0242090  14.3112550  59.0971660  82.6535000  15.1927010
  59.2713040  83.9619660  14.4514370  62.8408060  84.5801680   9.9122270
  62.5999420  84.8476240   9.0252790  63.7810700  84.7507410   9.9673130
  65.0462480  71.0434370  13.6678780  64.9851370  71.6356200  14.4174190
  65.9862860  70.9360330  13.5229040  67.6837040  70.7004430  13.3071070
  68.2977450  71.0183720  12.6452150  68.2286600  70.2153020  13.9266930
  74.1012220  86.5996060  10.7132910  73.6070500  86.9964930   9.9960040
  73.4925510  85.9745270  11.1070190  58.2058300  69.3798690  13.4210130
  58.7541290  69.1986740  12.6576240  58.2713610  68.5892800  13.9566440
  58.9790060  85.9704340  11.4310330  58.3850380  85.8389040  12.1700370
  58.9713900  85.1342480  10.9652430  68.4245080  69.2636570   9.6340360
  67.5504920  69.5971680   9.4313290  68.3155830  68.7909750  10.4592230
  69.3317060  71.4707440  11.0182080  69.0030420  70.6559200  10.6383810
  70.2799360  71.4277250  10.8947770  71.7851670  87.2419480   7.9919650
  71.3254640  87.9935290   7.6177670  71.1564130  86.5225950   7.9334450
  58.6102290  83.3362720  10.3818370  57.8836350  82.7168010  10.3144320
  58.6711440  83.7303330   9.5116450  62.2147390  85.5507720   7.1667780
  62.7312410  84.9395080   6.6416040  62.8644770  86.0536500   7.6578790
  64.9542890  86.4416210   7.9936760  65.2420700  86.1870510   7.1169770
  65.4666110  85.8893570   8.5842330  66.1719900  70.1806410   8.5733270
  65.3891690  70.6551910   8.8530030  65.8782830  69.2761240   8.4646450
  70.7240970  70.8829510   6.6182360  71.1649060  70.8274610   5.7703960
  70.4548560  71.7987520   6.6892540  72.5879540  70.5144750   4.6291180
  72.5267940  69.5705970   4.4822200  73.3671570  70.6224840   5.1744640
  56.8932290  86.6537110   3.5915130  56.7254330  86.0207790   4.2897020
  56.0266800  86.8596510   3.2409320  64.0574120  72.5993160   4.0849300
  63.2448630  72.2250050   3.7445180  64.5615760  71.8438240   4.3870490
  68.5599100  69.2635610   5.3232370  69.1628470  69.8355820   5.7980890
  67.8192090  69.8275050   5.1006270  62.0823300  70.7493080   2.6894350
  61.4526040  70.0480390   2.8564480  61.5428440  71.5097210   2.4727510
  65.0215250  87.3632310  15.3604960  65.9482560  87.1276580  15.4040920
  65.0065680  88.1904310  14.8790990  73.2560310  86.9057880   2.3579210
  73.4312500  86.2195620   1.7140130  72.5581880  87.4304930   1.9655880
  62.2078860  70.0277060  15.1246840  61.9263130  70.5310660  14.3607660
  62.5898560  69.2298810  14.7588970  68.8094320  69.4430640  15.7027310
  68.6959770  69.7625250  16.5978830  69.6264060  69.8443150  15.4064590
  71.5892810  86.5902170  15.1846000  72.3818130  86.0951400  14.9771960
  71.8825960  87.2692310  15.7921610  67.7152470  58.6879620  61.1636010
  67.6346520  57.7734230  60.8927720  67.3016890  59.1846690  60.4575720
  65.8470510  60.4658640  63.0445280  65.0712610  59.9859080  63.3343850
  66.4983440  59.7864290  62.8701440  59.8636340  60.7778450  63.9221040
  59.0321220  60.5227160  64.3217550  60.4717320  60.8489220  64.6578960
  69.8677940  64.8718830  61.8244410  69.4059470  64.1006070  62.1531580
  70.6803490  64.8984900  62.3296860  59.8437600  64.8118540  64.1179060
  60.1465640  63.9216280  63.9389280  60.5881190  65.3688760  63.8901310
  58.2728290  55.7380340  57.7063430  57.3844990  56.0796310  57.6043310
  58.5569480  55.5380660  56.8144260  56.2361300  58.3385990  63.5903130
  56.8077410  57.5708190  63.5906770  56.2362840  58.6374750  62.6809740
  66.0941250  67.1576840  61.4448400  65.4752690  67.6134340  60.8742840
  66.9493030  67.3128300  61.0438100  65.2879500  63.1415830  63.0515440
  65.2187780  62.2005770  62.8904570  66.0499360  63.2317240  63.6238010
  57.4786170  53.7470350  65.3772060  57.2989010  52.8496100  65.6574820
  57.0766250  54.2942220  66.0519010  66.3184670  55.9486210  63.2784370
  66.6949490  55.0758090  63.1658040  66.2204180  56.2844910  62.3874810
  60.4489680  54.3211840  58.7401810  60.5556430  55.2215570  59.0470570
  59.5382040  54.2729810  58.4496460  70.1008790  53.4436650  60.2112710
  70.9218410  52.9533220  60.2538190  70.1342870  54.0334310  60.9644550
  58.0972840  56.2430850  63.9854400  58.7782950  56.5069220  64.6041800
  57.7820890  55.4031720  64.3192410  62.2897410  57.2898210  63.0726990
  62.7975630  57.7879180  63.7132010  62.8210650  56.5133410  62.8966350
  74.3908340  55.4603400  66.7756340  73.6860510  55.8485110  66.2571450
  74.6566260  56.1553690  67.3777270  60.5733510  51.9296770  67.3390410
  60.5751950  52.4469160  66.5336310  59.7437820  51.4526950  67.3160340
  66.9604600  62.0416080  58.8380310  66.3421870  62.5065530  58.2743030
  67.4727850  62.7343560  59.2549820  61.8236360  61.5691950  65.5163910
  61.4905740  62.1960870  66.1584980  62.0003040  62.0953830  64.7365580
  70.3370270  55.3837030  62.9840250  69.6325840  55.6721920  63.5643360
  70.6982430  56.1937140  62.6239810  60.2548840  53.6406730  65.3460860
  60.5965650  54.4848780  65.0514730  59.3164650  53.7890470  65.4626200
  61.0355460  63.5372750  67.3313090  61.6529460  64.2123830  67.0497540
  60.1748580  63.9460730  67.2400590  56.3287800  62.7272610  56.2119940
  55.9515780  63.2159710  55.4804840  56.5860870  63.3997890  56.8426470
  71.9533050  65.0012160  65.2467730  71.2696570  65.6711270  65.2384400
  72.4927340  65.1992810  64.4812590  73.4057190  54.8291820  63.3749460
  72.4582100  54.8630800  63.5064890  73.7307180  55.6430770  63.7598820
  63.9376730  51.1289000  61.6705450  64.2451710  50.5735890  60.9540950
  63.0077430  51.2633460  61.4878440  69.4891790  66.8456290  63.9612910
  69.5018950  66.4418580  63.0935170  68.9367010  67.6203580  63.8574340
  70.7837210  63.5672510  59.0503080  70.6733540  62.6246840  59.1752500
  70.7805460  63.9288150  59.9365840  68.8877230  61.7486130  65.2895520
  69.3046020  61.5346240  64.4548980  69.6117050  62.0058920  65.8604140
  66.3257490  59.1937830  58.4065570  65.3986770  59.1275210  58.6354040
  66.4782310  60.1317960  58.2920810  66.3126570  55.4654830  55.4032730
  65.3730240  55.6268790  55.4885190  66.6309830  56.1840510  54.8568720
  72.8339330  60.1473350  65.3811760  72.0057960  60.2166440  64.9061890
  73.4289810  60.7327660  64.9127590  70.3554780  60.7558130  58.9100820
  69.7367200  60.4177680  58.2627120  70.3379230  60.1117890  59.6180010
  69.7981340  56.9342670  66.3266630  69.3852520  57.7596380  66.5806620
  69.0657290  56.3487710  66.1342990  61.9314130  59.7202570  61.1885300
  61.5271130  59.0079820  60.6931200  62.0177250  59.3755810  62.0773340
  62.3995830  63.4070130  63.3524510  62.1024120  62.8015600  62.6732290
  63.3495650  63.4447440  63.2413870  60.6442750  56.4945780  64.9684340
  61.1957340  56.6041120  64.1937590  61.1586260  56.8683380  65.6839570
  70.4881440  66.9802000  67.0147610  70.0112000  67.7874190  66.8220220
  69.8043230  66.3280330  67.1673820  68.5319480  59.9944940  55.9173570
  68.9712760  59.1567370  55.7711390  69.2447900  60.6274340  56.0037710
  66.6414860  64.9341010  59.8854810  67.0810770  65.6765340  59.4710200
  66.5801750  65.1767580  60.8093770  72.1136620  51.2487750  54.2314610
  71.8009280  51.3414580  55.1313680  72.8749090  51.8268780  54.1812040
  58.6318760  58.6147550  58.6891950  58.5116360  59.3409640  58.0773220
  58.3219650  57.8450460  58.2119860  56.2704130  61.7862690  64.4960590
  56.3484550  61.9211460  63.5516310  56.8845810  61.0778580  64.6888710
  57.5151760  63.4862880  60.9066770  57.1079840  63.6277470  60.0520370
  58.4064770  63.2023040  60.7037980  69.3085040  67.9210130  57.2417820
  69.1486180  67.6313070  58.1399650  69.1431750  67.1450260  56.7063050
  61.7873420  67.7008660  59.0189440  61.6115900  66.7844200  58.8057240
  60.9329160  68.0595950  59.2587240  69.0111170  65.4297690  55.8015820
  68.3176330  65.4274980  55.1418100  69.7534030  65.0057010  55.3709990
  68.5761100  67.0560400  59.8764310  69.0318050  66.2749780  60.1902930
  68.9153620  67.7667220  60.4205490  56.3263650  62.8276860  67.0355050
  56.4894690  62.3582220  66.2174420  56.7916100  62.3200420  67.7003890
  61.0982420  51.9582620  62.0715620  60.6550570  52.7392160  61.7400140
  61.6567410  52.2812510  62.7786560  64.2141240  51.5793320  56.9521450
  63.5895420  51.5753190  57.6774760  64.1271360  50.7124280  56.5557420
  63.1358320  52.5029950  63.9305220  63.4330650  53.4092780  63.8497240
  63.6843880  52.0148730  63.3164790  60.8896640  57.0816190  59.7996870
  60.6637560  56.8653360  60.7043490  60.1089170  57.5144650  59.4542840
  68.1194400  57.0879560  58.3987520  67.5203290  57.8115360  58.2151140
  68.6674010  57.0256340  57.6163970  66.7259270  55.7243100  60.4290800
  67.1188840  56.0415300  59.6159490  67.0876120  54.8454980  60.5435320
  55.7623440  52.3143900  62.6521000  55.4736490  52.8846760  63.3645980
  56.5069200  51.8348350  63.0152230  55.9493670  56.2564020  53.8623720
  55.8668340  57.1994780  54.0038710  55.5976730  56.1138930  52.9836070
  67.3114410  58.3148850  64.5241580  66.5795530  58.8235660  64.8731680
  66.9138750  57.4978830  64.2230360  63.7491800  54.9903050  62.9294070
  63.7527860  54.5493000  62.0798610  64.6442920  55.3120380  63.0365890
  59.5994180  54.8729540  61.8888280  59.2594230  55.3504770  62.6455330
  58.8371500  54.4194660  61.5289380  63.8111950  55.9915130  55.9200830
  63.9324770  55.9501610  56.8686650  63.4260460  56.8539280  55.7647560
  67.7740320  53.7682530  63.9364520  67.7913060  54.2191180  64.7806370
  67.5255900  52.8688170  64.1497960  62.8233450  58.3016270  55.3184130
  62.2550350  57.8534520  54.6920040  63.5322450  58.6609050  54.7849280
  64.0499770  59.0504830  64.6759480  64.4169900  58.5763400  65.4220820
  63.8604830  59.9246400  65.0167820  56.9140260  53.7948520  60.8052950
  56.6287180  53.4304190  61.6431570  56.8519120  53.0628980  60.1916090
  61.8399140  58.0913470  66.9943690  61.5356210  58.9705450  67.2194050
  62.7945600  58.1513260  67.0301130  60.3680930  62.2974460  57.5910540
  59.5943190  61.7572080  57.4309260  61.0975560  61.7781070  57.2528300
  71.1268910  61.2939820  63.3836930  71.8468030  61.7895110  62.9933040
  70.9250730  60.6157710  62.7390800  66.5878850  52.6877780  57.5266320
  65.7743460  52.1890950  57.4511630  66.3940800  53.5276030  57.1102670
  69.3027240  57.0597430  55.8228480  70.1906860  57.3714660  55.6479820
  69.2732330  56.1869680  55.4309060  60.4118330  61.9654840  61.2289350
  60.9297000  61.1623100  61.1746240  59.9602350  61.9033980  62.0706180
  65.2987830  63.2321120  56.5016650  65.6403530  63.9763350  56.0059970
  64.4700540  63.5452240  56.8641480  71.5741510  58.3709270  55.2908340
  71.4905230  58.8023490  54.4404780  72.2935700  58.8307620  55.7235160
  72.6028760  65.2251530  58.0190470  71.9604920  64.5707150  58.2934190
  72.2159420  65.6306620  57.2431140  68.1815240  62.5536960  61.8662160
  68.5339060  61.9565090  61.2063530  67.2977570  62.2281190  62.0370410
  64.2678520  63.3134650  59.2732570  64.9549650  63.8603860  59.6540160
  63.4810940  63.8575380  59.3082180  56.4070920  58.9307470  54.7649650
  57.2765770  59.2132270  55.0485570  55.9161240  59.7443340  54.6498460
  63.5705730  60.3180680  58.8857930  64.0268510  61.1285930  59.1118120
  63.2193940  60.0003820  59.7176420  65.8738340  65.8287020  66.1150230
  66.5180560  66.0346400  66.7923650  66.2367780  65.0675420  65.6621080
  59.4717510  50.6618330  59.3580450  59.3432140  50.6536230  60.3065370
  58.6479530  51.0001420  59.0071460  67.1470420  63.8319370  64.8327680
  67.7892650  63.1312530  64.9459850  67.6719770  64.6117810  64.6524570
  70.9926140  64.1167990  54.5566820  70.7663720  63.3998430  55.1491460
  70.6022340  63.8680430  53.7188570  56.7742170  68.1434850  55.3311280
  57.1339810  68.7424190  54.6768550  56.6334510  68.6894740  56.1046310
  70.5742390  62.0339930  56.2180980  70.2864090  62.4952620  57.0058860
  71.3694560  61.5737700  56.4865200  62.7910790  65.5266050  56.1484950
  62.7820890  66.2595740  55.5329460  61.8709150  65.2797630  56.2411910
  58.3917430  60.7480940  56.8931710  57.7845380  61.4879840  56.9027010
  58.8666780  60.8380300  56.0669910  67.9650220  54.9131760  66.5688600
  68.3331040  54.0926970  66.8968170  67.1048420  54.9733650  66.9844250
  71.3312250  53.8688700  57.3776160  70.7025410  53.9734370  56.6634390
  70.8364170  54.0885480  58.1670040  65.7770390  65.5894290  54.8110140
  65.8782370  65.3858280  53.8812120  64.8772130  65.3352570  55.0157920
  63.2996280  56.1474650  58.7934040  62.5912430  56.6160990  59.2347650
  63.5840760  55.4896660  59.4279230  64.9252210  57.5671350  66.7926570
  65.4237460  58.0417170  67.4578420  65.0675160  56.6434870  66.9996600
  67.3311710  52.8725310  60.2329830  67.2079490  52.8911440  59.2839340
  68.2796270  52.9204250  60.3528230  64.4188500  68.1080610  59.5057810
  64.6730000  68.0702000  58.5837180  63.4700980  67.9813940  59.4986060
  61.5031300  54.4559730  56.1684750  62.3521830  54.8929880  56.1024940
  61.1362570  54.7679990  56.9956810  70.4241080  59.0272490  61.0816320
  69.4831220  59.0422720  61.2564010  70.7385150  58.2408450  61.5276620
  60.4022720  60.7092090  54.6420280  61.1685990  60.5973450  55.2045710
  60.4797410  60.0130060  53.9897050  59.0969480  58.1417160  55.3253170
  59.1773070  57.1944670  55.4370570  59.9889230  58.4724040  55.4313830
  72.4266660  66.1981340  62.7570580  72.5514080  67.0212510  63.2294390
  73.2932220  65.9872070  62.4094730  59.8984190  68.2912550  62.4287710
  60.6346670  67.7428010  62.6996280  60.2825110  69.1568560  62.2893700
  56.7829670  64.3586120  58.3029220  55.8569450  64.6007260  58.2934630
  57.2486100  65.1860380  58.1813970  63.0086500  67.4642860  54.2513280
  63.8015110  67.7531690  53.7995070  62.4890850  67.0335030  53.5725760
  72.0616670  66.6912990  55.6750020  71.7758180  66.2778130  54.8604200
  71.8636220  67.6200700  55.5550540  63.5263900  62.6846270  54.1155630
  63.4214540  62.0698620  54.8417010  63.3588120  62.1612160  53.3318640
  66.7666630  61.7466300  54.7197620  66.2176730  62.1935600  55.3640360
  67.3885890  61.2415550  55.2435290  62.4341750  60.7057220  56.6162920
  62.8558170  60.5397090  57.4594310  62.5592590  59.8957450  56.1218060
  64.9469390  59.7294830  53.8640020  65.4675050  59.0143850  53.4981170
  65.5937790  60.3680700  54.1640530  63.8502910  52.2089380  66.5358580
  63.4020210  52.2313640  65.6904130  63.2168110  51.8108400  67.1328880
  64.2562460  61.1043710  67.1571020  64.6750570  61.9476440  66.9847260
  63.3371090  61.2415750  66.9277800  68.9314260  59.3897080  67.1171370
  68.4049480  59.9139700  66.5136510  69.2745600  60.0224470  67.7481100
  61.3300650  56.7790450  53.5621080  61.1289710  55.9157810  53.9234420
  61.1592700  56.6923810  52.6242680  68.8088960  51.5898680  56.0907960
  69.0891250  50.7466580  56.4467380  68.0354690  51.8221790  56.6046710
  60.1283450  53.8791070  53.5498960  60.4309350  53.8858500  52.6418110
  60.8678040  53.5288930  54.0466620  63.3468380  52.8225690  54.5355160
  62.9990380  52.1449680  53.9557610  63.5481150  52.3615200  55.3498550
  65.5117420  67.8106440  56.1541760  66.4068210  68.1491410  56.1760520
  65.5435050  67.0885850  55.5266040  59.1513580  63.1833490  54.3828760
  59.5888450  63.7263160  55.0386340  59.6361310  62.3580440  54.3925100
  56.3659380  65.9722520  61.8349020  56.6962390  65.1043580  61.6027660
  56.7950380  66.1781040  62.6653980  60.9621300  64.3031530  59.4950990
  60.6616840  64.1796500  60.3954900  60.8558790  63.4440120  59.0866720
  56.8549590  66.8393110  64.5730650  56.4180580  67.0193910  65.4054800
  57.4227270  67.5967730  64.4312370  73.7313220  64.0827930  54.1977670
  72.9006180  64.1504580  54.6684900  73.9085050  64.9732050  53.8944530
  73.1869680  60.8275410  56.7011870  73.9488590  61.3972060  56.8071560
  73.2024050  60.2602610  57.4720180  56.6874020  59.3513340  60.9319530
  56.0322860  59.0824980  60.2879230  57.5251970  59.2417820  60.4821510
  74.1929650  61.6825510  61.5453800  74.5638480  60.8992830  61.1389770
  74.8331580  62.3714610  61.3671100  71.1763410  63.0662090  66.9584120
  70.3623250  63.4959250  67.2209910  71.5837610  63.6780500  66.3453170
  73.2388850  61.1209780  53.8584390  73.5137690  62.0288660  53.7303610
  73.0499590  61.0572310  54.7946380  69.6364460  54.1454630  55.1538020
  70.0549340  53.9585610  54.3134680  69.3300520  53.2933680  55.4640950
  73.1354190  59.0578770  58.8513820  72.7597790  58.2906700  58.4195110
  72.4057310  59.4401470  59.3388750  57.7249950  59.7365910  65.4722870
  58.0922990  59.6493310  66.3518890  57.1560770  58.9732460  65.3729730
  55.9012100  56.5612270  56.8744860  54.9976180  56.8242470  56.6996520
  56.3852720  56.8323440  56.0944820  72.4105150  57.2836260  62.1521060
  72.9342630  56.7898910  61.5211230  72.9964570  57.4186620  62.8968630
  72.5894870  57.3676130  65.6740610  71.6397580  57.3339670  65.7885600
  72.7707880  58.2776240  65.4390380  58.4439310  55.6177810  54.7839240
  59.1531010  55.1961030  54.2986520  57.7279250  55.6853040  54.1522590
  58.0913470  51.6717140  53.8241890  58.8141600  52.2126080  54.1423110
  58.3637990  51.3980560  52.9483430  71.9005120  56.5409610  58.0913470
  72.3964240  56.3080480  58.8762350  71.7021190  55.7021450  57.6751110
  57.7805660  50.9223330  63.7264510  58.4281850  50.3720710  63.2859670
  58.2007500  51.1766480  64.5480320  73.3292280  55.1770560  60.6251150
  73.2191560  55.0226600  61.5633420  74.0899870  54.6491500  60.3826560
  71.6758000  51.1164690  67.0834150  72.3130220  51.7298830  67.4493340
  71.8232890  51.1525350  66.1383380  74.2182550  53.0078480  53.8657290
  75.1431860  52.8759660  53.6575580  74.1958340  53.0871300  54.8193740
  74.2921040  53.7789140  56.4914000  73.4972540  53.7134260  57.0206910
  74.4964320  54.7139780  56.4799350  71.2339460  67.8180690  60.4852390
  71.8298530  67.4965260  59.8086810  71.4917610  67.3452510  61.2765660
  57.5337660  51.0779000  66.4689830  57.1852480  51.5342820  67.2348010
  57.2025360  50.1836130  66.5512260  62.8408060  65.8058190  66.2352740
  62.5999420  66.0732750  65.3483260  63.7810700  65.9763920  66.2903600
  74.1012220  67.8252570  67.0363380  73.6070500  68.2221440  66.3190510
  73.4925510  67.2001780  67.4300660  68.4245080  50.4893080  65.9570830
  67.5504920  50.8228190  65.7543760  68.3155830  50.0166260  66.7822700
  69.3317060  52.6963950  67.3412550  69.0030420  51.8815710  66.9614280
  70.2799360  52.6533760  67.2178240  71.7851670  68.4675990  64.3150120
  71.3254640  69.2191800  63.9408140  71.1564130  67.7482460  64.2564920
  58.6102290  64.5619230  66.7048840  57.8836350  63.9424520  66.6374790
  58.6711440  64.9559840  65.8346920  62.2147390  66.7764230  63.4898250
  62.7312410  66.1651590  62.9646510  62.8644770  67.2793010  63.9809260
  64.9542890  67.6672720  64.3167230  65.2420700  67.4127020  63.4400240
  65.4666110  67.1150080  64.9072800  66.1719900  51.4062920  64.8963740
  65.3891690  51.8808420  65.1760500  65.8782830  50.5017750  64.7876920
  70.7240970  52.1086020  62.9412830  71.1649060  52.0531120  62.0934430
  70.4548560  53.0244030  63.0123010  72.5879540  51.7401260  60.9521650
  72.5267940  50.7962480  60.8052670  73.3671570  51.8481350  61.4975110
  56.8932290  67.8793620  59.9145600  56.7254330  67.2464300  60.6127490
  56.0266800  68.0853020  59.5639790  57.5160310  51.7110400  57.4177460
  58.2739670  51.8239280  56.8441490  57.0537480  52.5479600  57.3720890
  64.0574120  53.8249670  60.4079770  63.2448630  53.4506560  60.0675650
  64.5615760  53.0694750  60.7100960  68.5599100  50.4892120  61.6462840
  69.1628470  51.0612330  62.1211360  67.8192090  51.0531560  61.4236740
  71.7033700  50.8913680  56.9203120  71.8984330  51.7897130  57.1870550
  70.9163570  50.6600760  57.4136070  58.4994990  66.5726850  57.3595740
  57.9742610  66.9534880  56.6557700  58.4239570  67.1977620  58.0805450
  59.8885460  52.2374450  55.9579430  60.4178220  51.4504250  55.8287380
  60.5213780  52.9165640  56.1914960  62.0823300  51.9749590  59.0124820
  61.4526040  51.2736900  59.1794950  61.5428440  52.7353720  58.7957980
  73.2560310  68.1314390  58.6809680  73.4312500  67.4452130  58.0370600
  72.5581880  68.6561440  58.2886350  61.0987960  68.5209230  56.2344990
  61.8306780  68.2368510  55.6868880  61.3581630  68.2822510  57.1244370
  60.2602750  64.6373960  56.2391320  59.6311630  65.1059060  56.7877150
  60.3750580  63.7923180  56.6737510  67.7152470  58.6879620  42.3892520
  67.6346520  57.7734230  42.1184230  67.3016890  59.1846690  41.6832230
  65.8470510  60.4658640  44.2701790  65.0712610  59.9859080  44.5600360
  66.4983440  59.7864290  44.0957950  59.8636340  60.7778450  45.1477550
  59.0321220  60.5227160  45.5474060  60.4717320  60.8489220  45.8835470
  58.2728290  55.7380340  38.9319940  57.3844990  56.0796310  38.8299820
  58.5569480  55.5380660  38.0400770  56.2361300  58.3385990  44.8159640
  56.8077410  57.5708190  44.8163280  56.2362840  58.6374750  43.9066250
  57.4786170  53.7470350  46.6028570  57.2989010  52.8496100  46.8831330
  57.0766250  54.2942220  47.2775520  66.3184670  55.9486210  44.5040880
  66.6949490  55.0758090  44.3914550  66.2204180  56.2844910  43.6131320
  60.4489680  54.3211840  39.9658320  60.5556430  55.2215570  40.2727080
  59.5382040  54.2729810  39.6752970  70.1008790  53.4436650  41.4369220
  70.9218410  52.9533220  41.4794700  70.1342870  54.0334310  42.1901060
  58.0972840  56.2430850  45.2110910  58.7782950  56.5069220  45.8298310
  57.7820890  55.4031720  45.5448920  62.2897410  57.2898210  44.2983500
  62.7975630  57.7879180  44.9388520  62.8210650  56.5133410  44.1222860
  74.3908340  55.4603400  48.0012850  73.6860510  55.8485110  47.4827960
  74.6566260  56.1553690  48.6033780  60.5733510  51.9296770  48.5646920
  60.5751950  52.4469160  47.7592820  59.7437820  51.4526950  48.5416850
  61.8236360  61.5691950  46.7420420  61.4905740  62.1960870  47.3841490
  62.0003040  62.0953830  45.9622090  70.3370270  55.3837030  44.2096760
  69.6325840  55.6721920  44.7899870  70.6982430  56.1937140  43.8496320
  60.2548840  53.6406730  46.5717370  60.5965650  54.4848780  46.2771240
  59.3164650  53.7890470  46.6882710  61.0355460  63.5372750  48.5569600
  61.6529460  64.2123830  48.2754050  60.1748580  63.9460730  48.4657100
  71.9533050  65.0012160  46.4724240  71.2696570  65.6711270  46.4640910
  72.4927340  65.1992810  45.7069100  73.4057190  54.8291820  44.6005970
  72.4582100  54.8630800  44.7321400  73.7307180  55.6430770  44.9855330
  63.9376730  51.1289000  42.8961960  64.2451710  50.5735890  42.1797460
  63.0077430  51.2633460  42.7134950  70.7837210  63.5672510  40.2759590
  70.6733540  62.6246840  40.4009010  70.7805460  63.9288150  41.1622350
  68.8877230  61.7486130  46.5152030  69.3046020  61.5346240  45.6805490
  69.6117050  62.0058920  47.0860650  66.3257490  59.1937830  39.6322080
  65.3986770  59.1275210  39.8610550  66.4782310  60.1317960  39.5177320
  66.3126570  55.4654830  36.6289240  65.3730240  55.6268790  36.7141700
  66.6309830  56.1840510  36.0825230  72.8339330  60.1473350  46.6068270
  72.0057960  60.2166440  46.1318400  73.4289810  60.7327660  46.1384100
  70.3554780  60.7558130  40.1357330  69.7367200  60.4177680  39.4883630
  70.3379230  60.1117890  40.8436520  69.7981340  56.9342670  47.5523140
  69.3852520  57.7596380  47.8063130  69.0657290  56.3487710  47.3599500
  61.9314130  59.7202570  42.4141810  61.5271130  59.0079820  41.9187710
  62.0177250  59.3755810  43.3029850  60.6442750  56.4945780  46.1940850
  61.1957340  56.6041120  45.4194100  61.1586260  56.8683380  46.9096080
  70.4881440  66.9802000  48.2404120  70.0112000  67.7874190  48.0476730
  69.8043230  66.3280330  48.3930330  61.4914260  63.1451820  51.2288820
  60.5942790  63.3691790  51.4762220  61.5167130  63.2686760  50.2800220
  68.5319480  59.9944940  37.1430080  68.9712760  59.1567370  36.9967900
  69.2447900  60.6274340  37.2294220  60.3185480  60.0165140  49.8046190
  60.1793250  60.8887940  50.1733590  59.4366840  59.6737950  49.6594130
  62.1165830  65.9586840  52.0131340  62.0881260  66.3629790  51.1459770
  61.9530800  65.0297200  51.8502940  72.1136620  51.2487750  35.4571120
  71.8009280  51.3414580  36.3570190  72.8749090  51.8268780  35.4068550
  58.6318760  58.6147550  39.9148460  58.5116360  59.3409640  39.3029730
  58.3219650  57.8450460  39.4376370  74.0680650  66.7413940  53.3095510
  74.5440370  67.2196830  53.9884590  74.6887810  66.6731430  52.5841010
  73.4713900  63.9326790  50.4695520  73.5976960  63.6938670  49.5512700
  73.5135280  63.1011330  50.9417600  67.3330640  67.6354790  49.0390330
  67.8475310  67.5462800  49.8412760  66.4899720  67.9814490  49.3318240
  73.3237910  55.9859250  51.4345260  72.7082180  56.4938920  50.9060720
  73.0034330  55.0857580  51.3771200  56.3263650  62.8276860  48.2611560
  56.4894690  62.3582220  47.4430930  56.7916100  62.3200420  48.9260400
  61.0982420  51.9582620  43.2972130  60.6550570  52.7392160  42.9656650
  61.6567410  52.2812510  44.0043070  65.3852230  54.8251140  48.9007450
  64.9231600  55.0334160  49.7127390  64.9830340  54.0110490  48.5978120
  70.3856740  56.0460090  50.0304110  69.5350330  55.7465840  50.3513180
  70.2258530  56.2902100  49.1187930  67.4806450  57.5461840  52.1302900
  67.8059860  56.7125590  51.7905130  68.2686780  58.0690360  52.2781230
  64.2141240  51.5793320  38.1777960  63.5895420  51.5753190  38.9031270
  64.1271360  50.7124280  37.7813930  63.1358320  52.5029950  45.1561730
  63.4330650  53.4092780  45.0753750  63.6843880  52.0148730  44.5421300
  60.8896640  57.0816190  41.0253380  60.6637560  56.8653360  41.9300000
  60.1089170  57.5144650  40.6799350  68.1194400  57.0879560  39.6244030
  67.5203290  57.8115360  39.4407650  68.6674010  57.0256340  38.8420480
  63.3295850  57.9801770  51.6913650  63.2339450  57.0396500  51.5414050
  64.1727830  58.2016840  51.2961720  66.7259270  55.7243100  41.6547310
  67.1188840  56.0415300  40.8416000  67.0876120  54.8454980  41.7691830
  58.4606390  54.3915440  49.8447430  58.0669780  55.2390650  50.0520210
  57.7724790  53.7541810  50.0356070  65.0351440  54.4750410  52.9144170
  64.3449760  54.2822610  53.5490260  65.7783740  54.7585050  53.4468470
  55.7623440  52.3143900  43.8777510  55.4736490  52.8846760  44.5902490
  56.5069200  51.8348350  44.2408740  55.9493670  56.2564020  35.0880230
  55.8668340  57.1994780  35.2295220  55.5976730  56.1138930  34.2092580
  67.3114410  58.3148850  45.7498090  66.5795530  58.8235660  46.0988190
  66.9138750  57.4978830  45.4486870  63.7491800  54.9903050  44.1550580
  63.7527860  54.5493000  43.3055120  64.6442920  55.3120380  44.2622400
  59.5994180  54.8729540  43.1144790  59.2594230  55.3504770  43.8711840
  58.8371500  54.4194660  42.7545890  63.8111950  55.9915130  37.1457340
  63.9324770  55.9501610  38.0943160  63.4260460  56.8539280  36.9904070
  67.7740320  53.7682530  45.1621030  67.7913060  54.2191180  46.0062880
  67.5255900  52.8688170  45.3754470  62.8233450  58.3016270  36.5440640
  62.2550350  57.8534520  35.9176550  63.5322450  58.6609050  36.0105790
  71.2011070  51.1814710  51.0007410  71.5256840  50.4504370  51.5265390
  71.2367580  50.8628350  50.0988400  57.9002630  62.2028290  50.4207370
  57.5157420  61.5621960  51.0190330  58.2114820  62.9064410  50.9902100
  64.0499770  59.0504830  45.9015990  64.4169900  58.5763400  46.6477330
  63.8604830  59.9246400  46.2424330  56.9140260  53.7948520  42.0309460
  56.6287180  53.4304190  42.8688080  56.8519120  53.0628980  41.4172600
  61.8399140  58.0913470  48.2200200  61.5356210  58.9705450  48.4450560
  62.7945600  58.1513260  48.2557640  71.1268910  61.2939820  44.6093440
  71.8468030  61.7895110  44.2189550  70.9250730  60.6157710  43.9647310
  66.5878850  52.6877780  38.7522830  65.7743460  52.1890950  38.6768140
  66.3940800  53.5276030  38.3359180  66.5087710  61.3648880  50.4962440
  66.4425020  60.4444550  50.2420030  65.8792850  61.4624320  51.2107080
  69.3027240  57.0597430  37.0484990  70.1906860  57.3714660  36.8736330
  69.2732330  56.1869680  36.6565570  57.8962870  58.9316210  49.3671560
  57.5377810  59.5970060  49.9544900  57.6017430  58.0999760  49.7384180
  61.0975990  59.3900450  52.2511110  60.7976130  59.5357630  51.3538930
  61.8687230  58.8305740  52.1584500  66.4404440  64.1869450  50.2466240
  66.4548980  63.2550410  50.0285150  65.7329540  64.2729210  50.8856010
  71.5741510  58.3709270  36.5164850  71.4905230  58.8023490  35.6661290
  72.2935700  58.8307620  36.9491670  72.6515650  60.8276790  49.5934820
  71.9263840  61.4205570  49.3964210  73.1791110  60.8200330  48.7948190
  72.6028760  65.2251530  39.2446980  71.9604920  64.5707150  39.5190700
  72.2159420  65.6306620  38.4687650  68.1815240  62.5536960  43.0918670
  68.5339060  61.9565090  42.4320040  67.2977570  62.2281190  43.2626920
  63.5705730  60.3180680  40.1114440  64.0268510  61.1285930  40.3374630
  63.2193940  60.0003820  40.9432930  59.4717510  50.6618330  40.5836960
  59.3432140  50.6536230  41.5321880  58.6479530  51.0001420  40.2327970
  70.9926140  64.1167990  35.7823330  70.7663720  63.3998430  36.3747970
  70.6022340  63.8680430  34.9445080  68.9208040  64.6314270  49.2620250
  69.2564280  65.2180960  49.9398170  68.0008380  64.5006980  49.4918040
  56.4711440  52.4209450  50.0443660  55.7569960  52.6206370  50.6496270
  56.8906480  51.6449020  50.4158460  70.5742390  62.0339930  37.4437490
  70.2864090  62.4952620  38.2315370  71.3694560  61.5737700  37.7121710
  56.7584030  66.4089710  51.0310190  56.8675150  65.4684450  50.8905580
  56.1064590  66.6744460  50.3823920  64.7496620  64.6805600  52.4308310
  64.4293490  63.9614840  52.9754000  64.0754980  65.3560670  52.5044370
  67.9650220  54.9131760  47.7945110  68.3331040  54.0926970  48.1224680
  67.1048420  54.9733650  48.2100760  71.3312250  53.8688700  38.6032670
  70.7025410  53.9734370  37.8890900  70.8364170  54.0885480  39.3926550
  63.2996280  56.1474650  40.0190550  62.5912430  56.6160990  40.4604160
  63.5840760  55.4896660  40.6535740  64.9252210  57.5671350  48.0183080
  65.4237460  58.0417170  48.6834930  65.0675160  56.6434870  48.2253110
  67.3311710  52.8725310  41.4586340  67.2079490  52.8911440  40.5095850
  68.2796270  52.9204250  41.5784740  61.5031300  54.4559730  37.3941260
  62.3521830  54.8929880  37.3281450  61.1362570  54.7679990  38.2213320
  72.1319070  53.7839310  48.8611470  71.6292670  54.5244710  49.2005280
  72.9475730  54.1723310  48.5448260  70.4241080  59.0272490  42.3072830
  69.4831220  59.0422720  42.4820520  70.7385150  58.2408450  42.7533130
  60.4022720  60.7092090  35.8676790  61.1685990  60.5973450  36.4302220
  60.4797410  60.0130060  35.2153560  59.0969480  58.1417160  36.5509680
  59.1773070  57.1944670  36.6627080  59.9889230  58.4724040  36.6570340
  72.4266660  66.1981340  43.9827090  72.5514080  67.0212510  44.4550900
  73.2932220  65.9872070  43.6351240  58.9042470  67.4758620  52.8429800
  59.7055200  67.7970670  53.2565200  58.3894290  67.1154200  53.5649710
  67.7407100  63.5838490  52.7905210  67.1345260  63.6070090  52.0500960
  67.4361210  62.8521530  53.3272460  69.1707470  67.3118780  51.4014620
  70.1229220  67.2276800  51.3514860  69.0235690  67.9760490  52.0748410
  56.6240280  59.9632080  51.7865850  57.1279300  59.3839360  52.3582080
  55.8847700  60.2472310  52.3242220  63.6778220  61.3703070  51.3201370
  62.9123890  61.9388070  51.2356040  63.8594180  61.0779280  50.4269600
  66.7666630  61.7466300  35.9454130  66.2176730  62.1935600  36.5896870
  67.3885890  61.2415550  36.4691800  70.8201570  63.1008400  51.8776390
  71.5611040  63.4384160  51.3743850  70.0574250  63.2700460  51.3246160
  58.6563360  58.1061670  52.6815920  58.6968700  57.8075540  53.5901150
  59.5108860  58.5069280  52.5223440  62.4341750  60.7057220  37.8419430
  62.8558170  60.5397090  38.6850820  62.5592590  59.8957450  37.3474570
  60.5969170  56.6853770  50.6490410  60.0665630  56.1944720  50.0213750
  61.2657240  57.1137970  50.1148340  64.9469390  59.7294830  35.0896530
  65.4675050  59.0143850  34.7237680  65.5937790  60.3680700  35.3897040
  69.4947230  61.1523230  50.4131600  69.9088250  61.3068310  51.2622020
  68.5598230  61.2778450  50.5757380  69.9669400  58.4919390  52.4170750
  70.5490170  57.7371710  52.3291230  70.1431170  59.0226830  51.6402230
  61.0841470  53.6516140  50.7287700  60.9898340  53.0336890  50.0038570
  60.5038860  54.3782430  50.5017610  63.8502910  52.2089380  47.7615090
  63.4020210  52.2313640  46.9160640  63.2168110  51.8108400  48.3585390
  64.2562460  61.1043710  48.3827530  64.6750570  61.9476440  48.2103770
  63.3371090  61.2415750  48.1534310  66.5926360  58.8359890  49.7665370
  66.7122570  58.2401030  50.5060210  67.4520360  58.8729580  49.3466670
  68.9314260  59.3897080  48.3427880  68.4049480  59.9139700  47.7393020
  69.2745600  60.0224470  48.9737610  61.3300650  56.7790450  34.7877590
  61.1289710  55.9157810  35.1490930  61.1592700  56.6923810  33.8499190
  62.1069880  67.4096720  49.4985260  61.5690970  68.1342780  49.1793960
  62.3603840  66.9327060  48.7082600  63.3595130  55.3781240  51.0241190
  63.9494820  55.0697090  51.7119010  62.5415370  54.9060990  51.1801090
  68.1788560  54.9947050  51.2574210  67.4904080  54.3328590  51.1924200
  68.8994580  54.5485320  51.7022670  68.8088960  51.5898680  37.3164470
  69.0891250  50.7466580  37.6723890  68.0354690  51.8221790  37.8303220
  60.1283450  53.8791070  34.7755470  60.4309350  53.8858500  33.8674620
  60.8678040  53.5288930  35.2723130  64.9632090  68.6447930  49.7571910
  64.8890790  69.5483070  50.0644280  64.0610930  68.3259830  49.7293980
  63.3468380  52.8225690  35.7611670  62.9990380  52.1449680  35.1814120
  63.5481150  52.3615200  36.5755060  72.4911770  66.3410110  50.0864470
  71.8913760  66.4002670  49.3428390  72.6205670  65.4015090  50.2161320
  73.7313220  64.0827930  35.4234180  72.9006180  64.1504580  35.8941410
  73.9085050  64.9732050  35.1201040  73.1869680  60.8275410  37.9268380
  73.9488590  61.3972060  38.0328070  73.2024050  60.2602610  38.6976690
  74.1929650  61.6825510  42.7710310  74.5638480  60.8992830  42.3646280
  74.8331580  62.3714610  42.5927610  71.1763410  63.0662090  48.1840630
  70.3623250  63.4959250  48.4466420  71.5837610  63.6780500  47.5709680
  73.2388850  61.1209780  35.0840900  73.5137690  62.0288660  34.9560120
  73.0499590  61.0572310  36.0202890  69.6364460  54.1454630  36.3794530
  70.0549340  53.9585610  35.5391190  69.3300520  53.2933680  36.6897460
  73.1354190  59.0578770  40.0770330  72.7597790  58.2906700  39.6451620
  72.4057310  59.4401470  40.5645260  57.7249950  59.7365910  46.6979380
  58.0922990  59.6493310  47.5775400  57.1560770  58.9732460  46.5986240
  72.5253810  58.2050290  49.7109850  72.2939900  57.9763040  48.8107800
  72.7858360  59.1249840  49.6654740  57.2765950  56.6475000  50.6037800
  56.3822000  56.6141760  50.9431510  57.8163500  56.8461790  51.3689050
  70.9641880  53.4306720  52.4889550  71.8412060  53.4390120  52.8723550
  70.9762720  52.6937560  51.8781900  55.9012100  56.5612270  38.1001370
  54.9976180  56.8242470  37.9253030  56.3852720  56.8323440  37.3201330
  72.4105150  57.2836260  43.3777570  72.9342630  56.7898910  42.7467740
  72.9964570  57.4186620  44.1225140  72.5894870  57.3676130  46.8997120
  71.6397580  57.3339670  47.0142110  72.7707880  58.2776240  46.6646890
  58.4439310  55.6177810  36.0095750  59.1531010  55.1961030  35.5243030
  57.7279250  55.6853040  35.3779100  58.0913470  51.6717140  35.0498400
  58.8141600  52.2126080  35.3679620  58.3637990  51.3980560  34.1739940
  71.9005120  56.5409610  39.3169980  72.3964240  56.3080480  40.1018860
  71.7021190  55.7021450  38.9007620  57.7805660  50.9223330  44.9521020
  58.4281850  50.3720710  44.5116180  58.2007500  51.1766480  45.7736830
  73.3292280  55.1770560  41.8507660  73.2191560  55.0226600  42.7889930
  74.0899870  54.6491500  41.6083070  71.6758000  51.1164690  48.3090660
  72.3130220  51.7298830  48.6749850  71.8232890  51.1525350  47.3639890
  74.2182550  53.0078480  35.0913800  75.1431860  52.8759660  34.8832090
  74.1958340  53.0871300  36.0450250  74.2921040  53.7789140  37.7170510
  73.4972540  53.7134260  38.2463420  74.4964320  54.7139780  37.7055860
  57.5337660  51.0779000  47.6946340  57.1852480  51.5342820  48.4604520
  57.2025360  50.1836130  47.7768770  59.1402030  64.2498600  51.8599530
  59.0971660  63.8791510  52.7413990  59.2713040  65.1876170  52.0001350
  62.8408060  65.8058190  47.4609250  62.5999420  66.0732750  46.5739770
  63.7810700  65.9763920  47.5160110  65.0462480  52.2690880  51.2165760
  64.9851370  52.8612710  51.9661170  65.9862860  52.1616840  51.0716020
  67.6837040  51.9260940  50.8558050  68.2977450  52.2440230  50.1939130
  68.2286600  51.4409530  51.4753910  74.1012220  67.8252570  48.2619890
  73.6070500  68.2221440  47.5447020  73.4925510  67.2001780  48.6557170
  58.2058300  50.6055200  50.9697110  58.7541290  50.4243250  50.2063220
  58.2713610  49.8149310  51.5053420  58.9790060  67.1960850  48.9797310
  58.3850380  67.0645550  49.7187350  58.9713900  66.3598990  48.5139410
  68.4245080  50.4893080  47.1827340  67.5504920  50.8228190  46.9800270
  68.3155830  50.0166260  48.0079210  69.3317060  52.6963950  48.5669060
  69.0030420  51.8815710  48.1870790  70.2799360  52.6533760  48.4434750
  71.7851670  68.4675990  45.5406630  71.3254640  69.2191800  45.1664650
  71.1564130  67.7482460  45.4821430  58.6102290  64.5619230  47.9305350
  57.8836350  63.9424520  47.8631300  58.6711440  64.9559840  47.0603430
  66.1719900  51.4062920  46.1220250  65.3891690  51.8808420  46.4017010
  65.8782830  50.5017750  46.0133430  70.7240970  52.1086020  44.1669340
  71.1649060  52.0531120  43.3190940  70.4548560  53.0244030  44.2379520
  72.5879540  51.7401260  42.1778160  72.5267940  50.7962480  42.0309180
  73.3671570  51.8481350  42.7231620  57.5160310  51.7110400  38.6433970
  58.2739670  51.8239280  38.0698000  57.0537480  52.5479600  38.5977400
  64.0574120  53.8249670  41.6336280  63.2448630  53.4506560  41.2932160
  64.5615760  53.0694750  41.9357470  68.5599100  50.4892120  42.8719350
  69.1628470  51.0612330  43.3467870  67.8192090  51.0531560  42.6493250
  71.7033700  50.8913680  38.1459630  71.8984330  51.7897130  38.4127060
  70.9163570  50.6600760  38.6392580  59.8885460  52.2374450  37.1835940
  60.4178220  51.4504250  37.0543890  60.5213780  52.9165640  37.4171470
  62.0823300  51.9749590  40.2381330  61.4526040  51.2736900  40.4051460
  61.5428440  52.7353720  40.0214490  65.0215250  68.5888820  52.9091940
  65.9482560  68.3533090  52.9527900  65.0065680  69.4160820  52.4277970
  73.2560310  68.1314390  39.9066190  73.4312500  67.4452130  39.2627110
  72.5581880  68.6561440  39.5142860  62.2078860  51.2533570  52.6733820
  61.9263130  51.7567170  51.9094640  62.5898560  50.4555320  52.3075950
  68.8094320  50.6687150  53.2514290  68.6959770  50.9881760  54.1465810
  69.6264060  51.0699660  52.9551570  71.5892810  67.8158680  52.7332980
  72.3818130  67.3207910  52.5258940  71.8825960  68.4948820  53.3408590
  67.7152470  58.6879620  23.6149030  67.6346520  57.7734230  23.3440740
  67.3016890  59.1846690  22.9088740  65.8470510  60.4658640  25.4958300
  65.0712610  59.9859080  25.7856870  66.4983440  59.7864290  25.3214460
  59.8636340  60.7778450  26.3734060  59.0321220  60.5227160  26.7730570
  60.4717320  60.8489220  27.1091980  58.2728290  55.7380340  20.1576450
  57.3844990  56.0796310  20.0556330  58.5569480  55.5380660  19.2657280
  56.2361300  58.3385990  26.0416150  56.8077410  57.5708190  26.0419790
  56.2362840  58.6374750  25.1322760  57.4786170  53.7470350  27.8285080
  57.2989010  52.8496100  28.1087840  57.0766250  54.2942220  28.5032030
  66.3184670  55.9486210  25.7297390  66.6949490  55.0758090  25.6171060
  66.2204180  56.2844910  24.8387830  60.4489680  54.3211840  21.1914830
  60.5556430  55.2215570  21.4983590  59.5382040  54.2729810  20.9009480
  70.1008790  53.4436650  22.6625730  70.9218410  52.9533220  22.7051210
  70.1342870  54.0334310  23.4157570  58.0972840  56.2430850  26.4367420
  58.7782950  56.5069220  27.0554820  57.7820890  55.4031720  26.7705430
  62.2897410  57.2898210  25.5240010  62.7975630  57.7879180  26.1645030
  62.8210650  56.5133410  25.3479370  74.3908340  55.4603400  29.2269360
  73.6860510  55.8485110  28.7084470  74.6566260  56.1553690  29.8290290
  60.5733510  51.9296770  29.7903430  60.5751950  52.4469160  28.9849330
  59.7437820  51.4526950  29.7673360  66.9604600  62.0416080  21.2893330
  66.3421870  62.5065530  20.7256050  67.4727850  62.7343560  21.7062840
  61.8236360  61.5691950  27.9676930  61.4905740  62.1960870  28.6098000
  62.0003040  62.0953830  27.1878600  70.3370270  55.3837030  25.4353270
  69.6325840  55.6721920  26.0156380  70.6982430  56.1937140  25.0752830
  60.2548840  53.6406730  27.7973880  60.5965650  54.4848780  27.5027750
  59.3164650  53.7890470  27.9139220  56.3287800  62.7272610  18.6632960
  55.9515780  63.2159710  17.9317860  56.5860870  63.3997890  19.2939490
  71.9533050  65.0012160  27.6980750  71.2696570  65.6711270  27.6897420
  72.4927340  65.1992810  26.9325610  73.4057190  54.8291820  25.8262480
  72.4582100  54.8630800  25.9577910  73.7307180  55.6430770  26.2111840
  63.9376730  51.1289000  24.1218470  64.2451710  50.5735890  23.4053970
  63.0077430  51.2633460  23.9391460  70.7837210  63.5672510  21.5016100
  70.6733540  62.6246840  21.6265520  70.7805460  63.9288150  22.3878860
  68.8877230  61.7486130  27.7408540  69.3046020  61.5346240  26.9062000
  69.6117050  62.0058920  28.3117160  66.3257490  59.1937830  20.8578590
  65.3986770  59.1275210  21.0867060  66.4782310  60.1317960  20.7433830
  66.3126570  55.4654830  17.8545750  65.3730240  55.6268790  17.9398210
  66.6309830  56.1840510  17.3081740  72.8339330  60.1473350  27.8324780
  72.0057960  60.2166440  27.3574910  73.4289810  60.7327660  27.3640610
  70.3554780  60.7558130  21.3613840  69.7367200  60.4177680  20.7140140
  70.3379230  60.1117890  22.0693030  69.7981340  56.9342670  28.7779650
  69.3852520  57.7596380  29.0319640  69.0657290  56.3487710  28.5856010
  61.9314130  59.7202570  23.6398320  61.5271130  59.0079820  23.1444220
  62.0177250  59.3755810  24.5286360  62.3995830  63.4070130  25.8037530
  62.1024120  62.8015600  25.1245310  63.3495650  63.4447440  25.6926890
  60.6442750  56.4945780  27.4197360  61.1957340  56.6041120  26.6450610
  61.1586260  56.8683380  28.1352590  68.5319480  59.9944940  18.3686590
  68.9712760  59.1567370  18.2224410  69.2447900  60.6274340  18.4550730
  60.3185480  60.0165140  31.0302700  60.1793250  60.8887940  31.3990100
  59.4366840  59.6737950  30.8850640  66.6414860  64.9341010  22.3367830
  67.0810770  65.6765340  21.9223220  66.5801750  65.1767580  23.2606790
  72.1136620  51.2487750  16.6827630  71.8009280  51.3414580  17.5826700
  72.8749090  51.8268780  16.6325060  58.6318760  58.6147550  21.1404970
  58.5116360  59.3409640  20.5286240  58.3219650  57.8450460  20.6632880
  74.0680650  66.7413940  34.5352020  74.5440370  67.2196830  35.2141100
  74.6887810  66.6731430  33.8097520  57.5151760  63.4862880  23.3579790
  57.1079840  63.6277470  22.5033390  58.4064770  63.2023040  23.1551000
  73.4713900  63.9326790  31.6952030  73.5976960  63.6938670  30.7769210
  73.5135280  63.1011330  32.1674110  69.3085040  67.9210130  19.6930840
  69.1486180  67.6313070  20.5912670  69.1431750  67.1450260  19.1576070
  61.7873420  67.7008660  21.4702460  61.6115900  66.7844200  21.2570260
  60.9329160  68.0595950  21.7100260  69.0111170  65.4297690  18.2528840
  68.3176330  65.4274980  17.5931120  69.7534030  65.0057010  17.8223010
  68.5761100  67.0560400  22.3277330  69.0318050  66.2749780  22.6415950
  68.9153620  67.7667220  22.8718510  73.3237910  55.9859250  32.6601770
  72.7082180  56.4938920  32.1317230  73.0034330  55.0857580  32.6027710
  61.0982420  51.9582620  24.5228640  60.6550570  52.7392160  24.1913160
  61.6567410  52.2812510  25.2299580  65.3852230  54.8251140  30.1263960
  64.9231600  55.0334160  30.9383900  64.9830340  54.0110490  29.8234630
  70.3856740  56.0460090  31.2560620  69.5350330  55.7465840  31.5769690
  70.2258530  56.2902100  30.3444440  67.4806450  57.5461840  33.3559410
  67.8059860  56.7125590  33.0161640  68.2686780  58.0690360  33.5037740
  64.2141240  51.5793320  19.4034470  63.5895420  51.5753190  20.1287780
  64.1271360  50.7124280  19.0070440  63.1358320  52.5029950  26.3818240
  63.4330650  53.4092780  26.3010260  63.6843880  52.0148730  25.7677810
  60.8896640  57.0816190  22.2509890  60.6637560  56.8653360  23.1556510
  60.1089170  57.5144650  21.9055860  68.1194400  57.0879560  20.8500540
  67.5203290  57.8115360  20.6664160  68.6674010  57.0256340  20.0676990
  63.3295850  57.9801770  32.9170160  63.2339450  57.0396500  32.7670560
  64.1727830  58.2016840  32.5218230  66.7259270  55.7243100  22.8803820
  67.1188840  56.0415300  22.0672510  67.0876120  54.8454980  22.9948340
  58.4606390  54.3915440  31.0703940  58.0669780  55.2390650  31.2776720
  57.7724790  53.7541810  31.2612580  65.0351440  54.4750410  34.1400680
  64.3449760  54.2822610  34.7746770  65.7783740  54.7585050  34.6724980
  55.7623440  52.3143900  25.1034020  55.4736490  52.8846760  25.8159000
  56.5069200  51.8348350  25.4665250  55.9493670  56.2564020  16.3136740
  55.8668340  57.1994780  16.4551730  55.5976730  56.1138930  15.4349090
  67.3114410  58.3148850  26.9754600  66.5795530  58.8235660  27.3244700
  66.9138750  57.4978830  26.6743380  63.7491800  54.9903050  25.3807090
  63.7527860  54.5493000  24.5311630  64.6442920  55.3120380  25.4878910
  59.5994180  54.8729540  24.3401300  59.2594230  55.3504770  25.0968350
  58.8371500  54.4194660  23.9802400  63.8111950  55.9915130  18.3713850
  63.9324770  55.9501610  19.3199670  63.4260460  56.8539280  18.2160580
  67.7740320  53.7682530  26.3877540  67.7913060  54.2191180  27.2319390
  67.5255900  52.8688170  26.6010980  62.8233450  58.3016270  17.7697150
  62.2550350  57.8534520  17.1433060  63.5322450  58.6609050  17.2362300
  71.2011070  51.1814710  32.2263920  71.5256840  50.4504370  32.7521900
  71.2367580  50.8628350  31.3244910  64.0499770  59.0504830  27.1272500
  64.4169900  58.5763400  27.8733840  63.8604830  59.9246400  27.4680840
  56.9140260  53.7948520  23.2565970  56.6287180  53.4304190  24.0944590
  56.8519120  53.0628980  22.6429110  61.8399140  58.0913470  29.4456710
  61.5356210  58.9705450  29.6707070  62.7945600  58.1513260  29.4814150
  60.3680930  62.2974460  20.0423560  59.5943190  61.7572080  19.8822280
  61.0975560  61.7781070  19.7041320  71.1268910  61.2939820  25.8349950
  71.8468030  61.7895110  25.4446060  70.9250730  60.6157710  25.1903820
  66.5878850  52.6877780  19.9779340  65.7743460  52.1890950  19.9024650
  66.3940800  53.5276030  19.5615690  69.3027240  57.0597430  18.2741500
  70.1906860  57.3714660  18.0992840  69.2732330  56.1869680  17.8822080
  60.4118330  61.9654840  23.6802370  60.9297000  61.1623100  23.6259260
  59.9602350  61.9033980  24.5219200  65.2987830  63.2321120  18.9529670
  65.6403530  63.9763350  18.4572990  64.4700540  63.5452240  19.3154500
  61.0975990  59.3900450  33.4767620  60.7976130  59.5357630  32.5795440
  61.8687230  58.8305740  33.3841010  71.5741510  58.3709270  17.7421360
  71.4905230  58.8023490  16.8917800  72.2935700  58.8307620  18.1748180
  72.6515650  60.8276790  30.8191330  71.9263840  61.4205570  30.6220720
  73.1791110  60.8200330  30.0204700  72.6028760  65.2251530  20.4703490
  71.9604920  64.5707150  20.7447210  72.2159420  65.6306620  19.6944160
  68.1815240  62.5536960  24.3175180  68.5339060  61.9565090  23.6576550
  67.2977570  62.2281190  24.4883430  64.2678520  63.3134650  21.7245590
  64.9549650  63.8603860  22.1053180  63.4810940  63.8575380  21.7595200
  56.4070920  58.9307470  17.2162670  57.2765770  59.2132270  17.4998590
  55.9161240  59.7443340  17.1011480  63.5705730  60.3180680  21.3370950
  64.0268510  61.1285930  21.5631140  63.2193940  60.0003820  22.1689440
  59.4717510  50.6618330  21.8093470  59.3432140  50.6536230  22.7578390
  58.6479530  51.0001420  21.4584480  70.9926140  64.1167990  17.0079840
  70.7663720  63.3998430  17.6004480  70.6022340  63.8680430  16.1701590
  56.7742170  68.1434850  17.7824300  57.1339810  68.7424190  17.1281570
  56.6334510  68.6894740  18.5559330  56.4711440  52.4209450  31.2700170
  55.7569960  52.6206370  31.8752780  56.8906480  51.6449020  31.6414970
  70.5742390  62.0339930  18.6694000  70.2864090  62.4952620  19.4571880
  71.3694560  61.5737700  18.9378220  62.7910790  65.5266050  18.5997970
  62.7820890  66.2595740  17.9842480  61.8709150  65.2797630  18.6924930
  58.3917430  60.7480940  19.3444730  57.7845380  61.4879840  19.3540030
  58.8666780  60.8380300  18.5182930  67.9650220  54.9131760  29.0201620
  68.3331040  54.0926970  29.3481190  67.1048420  54.9733650  29.4357270
  71.3312250  53.8688700  19.8289180  70.7025410  53.9734370  19.1147410
  70.8364170  54.0885480  20.6183060  65.7770390  65.5894290  17.2623160
  65.8782370  65.3858280  16.3325140  64.8772130  65.3352570  17.4670940
  63.2996280  56.1474650  21.2447060  62.5912430  56.6160990  21.6860670
  63.5840760  55.4896660  21.8792250  64.9252210  57.5671350  29.2439590
  65.4237460  58.0417170  29.9091440  65.0675160  56.6434870  29.4509620
  67.3311710  52.8725310  22.6842850  67.2079490  52.8911440  21.7352360
  68.2796270  52.9204250  22.8041250  64.4188500  68.1080610  21.9570830
  64.6730000  68.0702000  21.0350200  63.4700980  67.9813940  21.9499080
  61.5031300  54.4559730  18.6197770  62.3521830  54.8929880  18.5537960
  61.1362570  54.7679990  19.4469830  72.1319070  53.7839310  30.0867980
  71.6292670  54.5244710  30.4261790  72.9475730  54.1723310  29.7704770
  70.4241080  59.0272490  23.5329340  69.4831220  59.0422720  23.7077030
  70.7385150  58.2408450  23.9789640  60.4022720  60.7092090  17.0933300
  61.1685990  60.5973450  17.6558730  60.4797410  60.0130060  16.4410070
  59.0969480  58.1417160  17.7766190  59.1773070  57.1944670  17.8883590
  59.9889230  58.4724040  17.8826850  72.4266660  66.1981340  25.2083600
  72.5514080  67.0212510  25.6807410  73.2932220  65.9872070  24.8607750
  56.7829670  64.3586120  20.7542240  55.8569450  64.6007260  20.7447650
  57.2486100  65.1860380  20.6326990  63.0086500  67.4642860  16.7026300
  63.8015110  67.7531690  16.2508090  62.4890850  67.0335030  16.0238780
  72.0616670  66.6912990  18.1263040  71.7758180  66.2778130  17.3117220
  71.8636220  67.6200700  18.0063560  63.5263900  62.6846270  16.5668650
  63.4214540  62.0698620  17.2930030  63.3588120  62.1612160  15.7831660
  66.7666630  61.7466300  17.1710640  66.2176730  62.1935600  17.8153380
  67.3885890  61.2415550  17.6948310  70.8201570  63.1008400  33.1032900
  71.5611040  63.4384160  32.6000360  70.0574250  63.2700460  32.5502670
  58.6563360  58.1061670  33.9072430  58.6968700  57.8075540  34.8157660
  59.5108860  58.5069280  33.7479950  62.4341750  60.7057220  19.0675940
  62.8558170  60.5397090  19.9107330  62.5592590  59.8957450  18.5731080
  60.5969170  56.6853770  31.8746920  60.0665630  56.1944720  31.2470260
  61.2657240  57.1137970  31.3404850  64.9469390  59.7294830  16.3153040
  65.4675050  59.0143850  15.9494190  65.5937790  60.3680700  16.6153550
  69.4947230  61.1523230  31.6388110  69.9088250  61.3068310  32.4878530
  68.5598230  61.2778450  31.8013890  69.9669400  58.4919390  33.6427260
  70.5490170  57.7371710  33.5547740  70.1431170  59.0226830  32.8658740
  61.0841470  53.6516140  31.9544210  60.9898340  53.0336890  31.2295080
  60.5038860  54.3782430  31.7274120  63.8502910  52.2089380  28.9871600
  63.4020210  52.2313640  28.1417150  63.2168110  51.8108400  29.5841900
  66.5926360  58.8359890  30.9921880  66.7122570  58.2401030  31.7316720
  67.4520360  58.8729580  30.5723180  68.9314260  59.3897080  29.5684390
  68.4049480  59.9139700  28.9649530  69.2745600  60.0224470  30.1994120
  61.3300650  56.7790450  16.0134100  61.1289710  55.9157810  16.3747440
  61.1592700  56.6923810  15.0755700  63.3595130  55.3781240  32.2497700
  63.9494820  55.0697090  32.9375520  62.5415370  54.9060990  32.4057600
  68.1788560  54.9947050  32.4830720  67.4904080  54.3328590  32.4180710
  68.8994580  54.5485320  32.9279180  68.8088960  51.5898680  18.5420980
  69.0891250  50.7466580  18.8980400  68.0354690  51.8221790  19.0559730
  60.1283450  53.8791070  16.0011980  60.4309350  53.8858500  15.0931130
  60.8678040  53.5288930  16.4979640  63.3468380  52.8225690  16.9868180
  62.9990380  52.1449680  16.4070630  63.5481150  52.3615200  17.8011570
  65.5117420  67.8106440  18.6054780  66.4068210  68.1491410  18.6273540
  65.5435050  67.0885850  17.9779060  59.1513580  63.1833490  16.8341780
  59.5888450  63.7263160  17.4899360  59.6361310  62.3580440  16.8438120
  56.3659380  65.9722520  24.2862040  56.6962390  65.1043580  24.0540680
  56.7950380  66.1781040  25.1167000  60.9621300  64.3031530  21.9464010
  60.6616840  64.1796500  22.8467920  60.8558790  63.4440120  21.5379740
  72.4911770  66.3410110  31.3120980  71.8913760  66.4002670  30.5684900
  72.6205670  65.4015090  31.4417830  73.7313220  64.0827930  16.6490690
  72.9006180  64.1504580  17.1197920  73.9085050  64.9732050  16.3457550
  73.1869680  60.8275410  19.1524890  73.9488590  61.3972060  19.2584580
  73.2024050  60.2602610  19.9233200  56.6874020  59.3513340  23.3832550
  56.0322860  59.0824980  22.7392250  57.5251970  59.2417820  22.9334530
  74.1929650  61.6825510  23.9966820  74.5638480  60.8992830  23.5902790
  74.8331580  62.3714610  23.8184120  71.1763410  63.0662090  29.4097140
  70.3623250  63.4959250  29.6722930  71.5837610  63.6780500  28.7966190
  73.2388850  61.1209780  16.3097410  73.5137690  62.0288660  16.1816630
  73.0499590  61.0572310  17.2459400  69.6364460  54.1454630  17.6051040
  70.0549340  53.9585610  16.7647700  69.3300520  53.2933680  17.9153970
  73.1354190  59.0578770  21.3026840  72.7597790  58.2906700  20.8708130
  72.4057310  59.4401470  21.7901770  72.5253810  58.2050290  30.9366360
  72.2939900  57.9763040  30.0364310  72.7858360  59.1249840  30.8911250
  57.2765950  56.6475000  31.8294310  56.3822000  56.6141760  32.1688020
  57.8163500  56.8461790  32.5945560  70.9641880  53.4306720  33.7146060
  71.8412060  53.4390120  34.0980060  70.9762720  52.6937560  33.1038410
  55.9012100  56.5612270  19.3257880  54.9976180  56.8242470  19.1509540
  56.3852720  56.8323440  18.5457840  72.4105150  57.2836260  24.6034080
  72.9342630  56.7898910  23.9724250  72.9964570  57.4186620  25.3481650
  72.5894870  57.3676130  28.1253630  71.6397580  57.3339670  28.2398620
  72.7707880  58.2776240  27.8903400  58.4439310  55.6177810  17.2352260
  59.1531010  55.1961030  16.7499540  57.7279250  55.6853040  16.6035610
  58.0913470  51.6717140  16.2754910  58.8141600  52.2126080  16.5936130
  58.3637990  51.3980560  15.3996450  71.9005120  56.5409610  20.5426490
  72.3964240  56.3080480  21.3275370  71.7021190  55.7021450  20.1264130
  57.7805660  50.9223330  26.1777530  58.4281850  50.3720710  25.7372690
  58.2007500  51.1766480  26.9993340  73.3292280  55.1770560  23.0764170
  73.2191560  55.0226600  24.0146440  74.0899870  54.6491500  22.8339580
  71.6758000  51.1164690  29.5347170  72.3130220  51.7298830  29.9006360
  71.8232890  51.1525350  28.5896400  74.2182550  53.0078480  16.3170310
  75.1431860  52.8759660  16.1088600  74.1958340  53.0871300  17.2706760
  74.2921040  53.7789140  18.9427020  73.4972540  53.7134260  19.4719930
  74.4964320  54.7139780  18.9312370  71.2339460  67.8180690  22.9365410
  71.8298530  67.4965260  22.2599830  71.4917610  67.3452510  23.7278680
  57.5337660  51.0779000  28.9202850  57.1852480  51.5342820  29.6861030
  57.2025360  50.1836130  29.0025280  65.0462480  52.2690880  32.4422270
  64.9851370  52.8612710  33.1917680  65.9862860  52.1616840  32.2972530
  67.6837040  51.9260940  32.0814560  68.2977450  52.2440230  31.4195640
  68.2286600  51.4409530  32.7010420  74.1012220  67.8252570  29.4876400
  73.6070500  68.2221440  28.7703530  73.4925510  67.2001780  29.8813680
  58.2058300  50.6055200  32.1953620  58.7541290  50.4243250  31.4319730
  58.2713610  49.8149310  32.7309930  68.4245080  50.4893080  28.4083850
  67.5504920  50.8228190  28.2056780  68.3155830  50.0166260  29.2335720
  69.3317060  52.6963950  29.7925570  69.0030420  51.8815710  29.4127300
  70.2799360  52.6533760  29.6691260  71.7851670  68.4675990  26.7663140
  71.3254640  69.2191800  26.3921160  71.1564130  67.7482460  26.7077940
  66.1719900  51.4062920  27.3476760  65.3891690  51.8808420  27.6273520
  65.8782830  50.5017750  27.2389940  70.7240970  52.1086020  25.3925850
  71.1649060  52.0531120  24.5447450  70.4548560  53.0244030  25.4636030
  72.5879540  51.7401260  23.4034670  72.5267940  50.7962480  23.2565690
  73.3671570  51.8481350  23.9488130  56.8932290  67.8793620  22.3658620
  56.7254330  67.2464300  23.0640510  56.0266800  68.0853020  22.0152810
  57.5160310  51.7110400  19.8690480  58.2739670  51.8239280  19.2954510
  57.0537480  52.5479600  19.8233910  64.0574120  53.8249670  22.8592790
  63.2448630  53.4506560  22.5188670  64.5615760  53.0694750  23.1613980
  68.5599100  50.4892120  24.0975860  69.1628470  51.0612330  24.5724380
  67.8192090  51.0531560  23.8749760  71.7033700  50.8913680  19.3716140
  71.8984330  51.7897130  19.6383570  70.9163570  50.6600760  19.8649090
  58.4994990  66.5726850  19.8108760  57.9742610  66.9534880  19.1070720
  58.4239570  67.1977620  20.5318470  59.8885460  52.2374450  18.4092450
  60.4178220  51.4504250  18.2800400  60.5213780  52.9165640  18.6427980
  62.0823300  51.9749590  21.4637840  61.4526040  51.2736900  21.6307970
  61.5428440  52.7353720  21.2471000  73.2560310  68.1314390  21.1322700
  73.4312500  67.4452130  20.4883620  72.5581880  68.6561440  20.7399370
  62.2078860  51.2533570  33.8990330  61.9263130  51.7567170  33.1351150
  62.5898560  50.4555320  33.5332460  61.0987960  68.5209230  18.6858010
  61.8306780  68.2368510  18.1381900  61.3581630  68.2822510  19.5757390
  60.2602750  64.6373960  18.6904340  59.6311630  65.1059060  19.2390170
  60.3750580  63.7923180  19.1250530  68.8094320  50.6687150  34.4770800
  68.6959770  50.9881760  35.3722320  69.6264060  51.0699660  34.1808080
  67.7152470  58.6879620   4.8405540  67.6346520  57.7734230   4.5697250
  67.3016890  59.1846690   4.1345250  65.8470510  60.4658640   6.7214810
  65.0712610  59.9859080   7.0113380  66.4983440  59.7864290   6.5470970
  59.8636340  60.7778450   7.5990570  59.0321220  60.5227160   7.9987080
  60.4717320  60.8489220   8.3348490  69.8677940  64.8718830   5.5013940
  69.4059470  64.1006070   5.8301110  70.6803490  64.8984900   6.0066390
  59.8437600  64.8118540   7.7948590  60.1465640  63.9216280   7.6158810
  60.5881190  65.3688760   7.5670840  56.2361300  58.3385990   7.2672660
  56.8077410  57.5708190   7.2676300  56.2362840  58.6374750   6.3579270
  66.0941250  67.1576840   5.1217930  65.4752690  67.6134340   4.5512370
  66.9493030  67.3128300   4.7207630  65.2879500  63.1415830   6.7284970
  65.2187780  62.2005770   6.5674100  66.0499360  63.2317240   7.3007540
  57.4786170  53.7470350   9.0541590  57.2989010  52.8496100   9.3344350
  57.0766250  54.2942220   9.7288540  66.3184670  55.9486210   6.9553900
  66.6949490  55.0758090   6.8427570  66.2204180  56.2844910   6.0644340
  60.4489680  54.3211840   2.4171340  60.5556430  55.2215570   2.7240100
  59.5382040  54.2729810   2.1265990  70.1008790  53.4436650   3.8882240
  70.9218410  52.9533220   3.9307720  70.1342870  54.0334310   4.6414080
  58.0972840  56.2430850   7.6623930  58.7782950  56.5069220   8.2811330
  57.7820890  55.4031720   7.9961940  62.2897410  57.2898210   6.7496520
  62.7975630  57.7879180   7.3901540  62.8210650  56.5133410   6.5735880
  74.3908340  55.4603400  10.4525870  73.6860510  55.8485110   9.9340980
  74.6566260  56.1553690  11.0546800  60.5733510  51.9296770  11.0159940
  60.5751950  52.4469160  10.2105840  59.7437820  51.4526950  10.9929870
  66.9604600  62.0416080   2.5149840  66.3421870  62.5065530   1.9512560
  67.4727850  62.7343560   2.9319350  61.8236360  61.5691950   9.1933440
  61.4905740  62.1960870   9.8354510  62.0003040  62.0953830   8.4135110
  70.3370270  55.3837030   6.6609780  69.6325840  55.6721920   7.2412890
  70.6982430  56.1937140   6.3009340  60.2548840  53.6406730   9.0230390
  60.5965650  54.4848780   8.7284260  59.3164650  53.7890470   9.1395730
  61.0355460  63.5372750  11.0082620  61.6529460  64.2123830  10.7267070
  60.1748580  63.9460730  10.9170120  71.9533050  65.0012160   8.9237260
  71.2696570  65.6711270   8.9153930  72.4927340  65.1992810   8.1582120
  73.4057190  54.8291820   7.0518990  72.4582100  54.8630800   7.1834420
  73.7307180  55.6430770   7.4368350  63.9376730  51.1289000   5.3474980
  64.2451710  50.5735890   4.6310480  63.0077430  51.2633460   5.1647970
  69.4891790  66.8456290   7.6382440  69.5018950  66.4418580   6.7704700
  68.9367010  67.6203580   7.5343870  70.7837210  63.5672510   2.7272610
  70.6733540  62.6246840   2.8522030  70.7805460  63.9288150   3.6135370
  68.8877230  61.7486130   8.9665050  69.3046020  61.5346240   8.1318510
  69.6117050  62.0058920   9.5373670  66.3257490  59.1937830   2.0835100
  65.3986770  59.1275210   2.3123570  66.4782310  60.1317960   1.9690340
  72.8339330  60.1473350   9.0581290  72.0057960  60.2166440   8.5831420
  73.4289810  60.7327660   8.5897120  70.3554780  60.7558130   2.5870350
  69.7367200  60.4177680   1.9396650  70.3379230  60.1117890   3.2949540
  69.7981340  56.9342670  10.0036160  69.3852520  57.7596380  10.2576150
  69.0657290  56.3487710   9.8112520  61.9314130  59.7202570   4.8654830
  61.5271130  59.0079820   4.3700730  62.0177250  59.3755810   5.7542870
  62.3995830  63.4070130   7.0294040  62.1024120  62.8015600   6.3501820
  63.3495650  63.4447440   6.9183400  60.6442750  56.4945780   8.6453870
  61.1957340  56.6041120   7.8707120  61.1586260  56.8683380   9.3609100
  70.4881440  66.9802000  10.6917140  70.0112000  67.7874190  10.4989750
  69.8043230  66.3280330  10.8443350  61.4914260  63.1451820  13.6801840
  60.5942790  63.3691790  13.9275240  61.5167130  63.2686760  12.7313240
  60.3185480  60.0165140  12.2559210  60.1793250  60.8887940  12.6246610
  59.4366840  59.6737950  12.1107150  66.6414860  64.9341010   3.5624340
  67.0810770  65.6765340   3.1479730  66.5801750  65.1767580   4.4863300
  62.1165830  65.9586840  14.4644360  62.0881260  66.3629790  13.5972790
  61.9530800  65.0297200  14.3015960  58.6318760  58.6147550   2.3661480
  58.5116360  59.3409640   1.7542750  58.3219650  57.8450460   1.8889390
  74.0680650  66.7413940  15.7608530  74.5440370  67.2196830  16.4397610
  74.6887810  66.6731430  15.0354030  56.2704130  61.7862690   8.1730120
  56.3484550  61.9211460   7.2285840  56.8845810  61.0778580   8.3658240
  57.5151760  63.4862880   4.5836300  57.1079840  63.6277470   3.7289900
  58.4064770  63.2023040   4.3807510  73.4713900  63.9326790  12.9208540
  73.5976960  63.6938670  12.0025720  73.5135280  63.1011330  13.3930620
  67.3330640  67.6354790  11.4903350  67.8475310  67.5462800  12.2925780
  66.4899720  67.9814490  11.7831260  61.7873420  67.7008660   2.6958970
  61.6115900  66.7844200   2.4826770  60.9329160  68.0595950   2.9356770
  68.5761100  67.0560400   3.5533840  69.0318050  66.2749780   3.8672460
  68.9153620  67.7667220   4.0975020  73.3237910  55.9859250  13.8858280
  72.7082180  56.4938920  13.3573740  73.0034330  55.0857580  13.8284220
  56.3263650  62.8276860  10.7124580  56.4894690  62.3582220   9.8943950
  56.7916100  62.3200420  11.3773420  61.0982420  51.9582620   5.7485150
  60.6550570  52.7392160   5.4169670  61.6567410  52.2812510   6.4556090
  65.3852230  54.8251140  11.3520470  64.9231600  55.0334160  12.1640410
  64.9830340  54.0110490  11.0491140  70.3856740  56.0460090  12.4817130
  69.5350330  55.7465840  12.8026200  70.2258530  56.2902100  11.5700950
  67.4806450  57.5461840  14.5815920  67.8059860  56.7125590  14.2418150
  68.2686780  58.0690360  14.7294250  63.1358320  52.5029950   7.6074750
  63.4330650  53.4092780   7.5266770  63.6843880  52.0148730   6.9934320
  60.8896640  57.0816190   3.4766400  60.6637560  56.8653360   4.3813020
  60.1089170  57.5144650   3.1312370  63.3295850  57.9801770  14.1426670
  63.2339450  57.0396500  13.9927070  64.1727830  58.2016840  13.7474740
  66.7259270  55.7243100   4.1060330  67.1188840  56.0415300   3.2929020
  67.0876120  54.8454980   4.2204850  58.4606390  54.3915440  12.2960450
  58.0669780  55.2390650  12.5033230  57.7724790  53.7541810  12.4869090
  65.0351440  54.4750410  15.3657190  64.3449760  54.2822610  16.0003280
  65.7783740  54.7585050  15.8981490  55.7623440  52.3143900   6.3290530
  55.4736490  52.8846760   7.0415510  56.5069200  51.8348350   6.6921760
  67.3114410  58.3148850   8.2011110  66.5795530  58.8235660   8.5501210
  66.9138750  57.4978830   7.8999890  63.7491800  54.9903050   6.6063600
  63.7527860  54.5493000   5.7568140  64.6442920  55.3120380   6.7135420
  59.5994180  54.8729540   5.5657810  59.2594230  55.3504770   6.3224860
  58.8371500  54.4194660   5.2058910  67.7740320  53.7682530   7.6134050
  67.7913060  54.2191180   8.4575900  67.5255900  52.8688170   7.8267490
  71.2011070  51.1814710  13.4520430  71.5256840  50.4504370  13.9778410
  71.2367580  50.8628350  12.5501420  57.9002630  62.2028290  12.8720390
  57.5157420  61.5621960  13.4703350  58.2114820  62.9064410  13.4415120
  64.0499770  59.0504830   8.3529010  64.4169900  58.5763400   9.0990350
  63.8604830  59.9246400   8.6937350  56.9140260  53.7948520   4.4822480
  56.6287180  53.4304190   5.3201100  56.8519120  53.0628980   3.8685620
  61.8399140  58.0913470  10.6713220  61.5356210  58.9705450  10.8963580
  62.7945600  58.1513260  10.7070660  71.1268910  61.2939820   7.0606460
  71.8468030  61.7895110   6.6702570  70.9250730  60.6157710   6.4160330
  66.5087710  61.3648880  12.9475460  66.4425020  60.4444550  12.6933050
  65.8792850  61.4624320  13.6620100  60.4118330  61.9654840   4.9058880
  60.9297000  61.1623100   4.8515770  59.9602350  61.9033980   5.7475710
  57.8962870  58.9316210  11.8184580  57.5377810  59.5970060  12.4057920
  57.6017430  58.0999760  12.1897200  61.0975990  59.3900450  14.7024130
  60.7976130  59.5357630  13.8051950  61.8687230  58.8305740  14.6097520
  66.4404440  64.1869450  12.6979260  66.4548980  63.2550410  12.4798170
  65.7329540  64.2729210  13.3369030  72.6515650  60.8276790  12.0447840
  71.9263840  61.4205570  11.8477230  73.1791110  60.8200330  11.2461210
  68.1815240  62.5536960   5.5431690  68.5339060  61.9565090   4.8833060
  67.2977570  62.2281190   5.7139940  64.2678520  63.3134650   2.9502100
  64.9549650  63.8603860   3.3309690  63.4810940  63.8575380   2.9851710
  63.5705730  60.3180680   2.5627460  64.0268510  61.1285930   2.7887650
  63.2193940  60.0003820   3.3945950  65.8738340  65.8287020   9.7919760
  66.5180560  66.0346400  10.4693180  66.2367780  65.0675420   9.3390610
  59.4717510  50.6618330   3.0349980  59.3432140  50.6536230   3.9834900
  58.6479530  51.0001420   2.6840990  67.1470420  63.8319370   8.5097210
  67.7892650  63.1312530   8.6229380  67.6719770  64.6117810   8.3294100
  68.9208040  64.6314270  11.7133270  69.2564280  65.2180960  12.3911190
  68.0008380  64.5006980  11.9431060  56.4711440  52.4209450  12.4956680
  55.7569960  52.6206370  13.1009290  56.8906480  51.6449020  12.8671480
  56.7584030  66.4089710  13.4823210  56.8675150  65.4684450  13.3418600
  56.1064590  66.6744460  12.8336940  64.7496620  64.6805600  14.8821330
  64.4293490  63.9614840  15.4267020  64.0754980  65.3560670  14.9557390
  67.9650220  54.9131760  10.2458130  68.3331040  54.0926970  10.5737700
  67.1048420  54.9733650  10.6613780  63.2996280  56.1474650   2.4703570
  62.5912430  56.6160990   2.9117180  63.5840760  55.4896660   3.1048760
  64.9252210  57.5671350  10.4696100  65.4237460  58.0417170  11.1347950
  65.0675160  56.6434870  10.6766130  67.3311710  52.8725310   3.9099360
  67.2079490  52.8911440   2.9608870  68.2796270  52.9204250   4.0297760
  64.4188500  68.1080610   3.1827340  64.6730000  68.0702000   2.2606710
  63.4700980  67.9813940   3.1755590  72.1319070  53.7839310  11.3124490
  71.6292670  54.5244710  11.6518300  72.9475730  54.1723310  10.9961280
  70.4241080  59.0272490   4.7585850  69.4831220  59.0422720   4.9333540
  70.7385150  58.2408450   5.2046150  72.4266660  66.1981340   6.4340110
  72.5514080  67.0212510   6.9063920  73.2932220  65.9872070   6.0864260
  59.8984190  68.2912550   6.1057240  60.6346670  67.7428010   6.3765810
  60.2825110  69.1568560   5.9663230  56.7829670  64.3586120   1.9798750
  55.8569450  64.6007260   1.9704160  57.2486100  65.1860380   1.8583500
  58.9042470  67.4758620  15.2942820  59.7055200  67.7970670  15.7078220
  58.3894290  67.1154200  16.0162730  67.7407100  63.5838490  15.2418230
  67.1345260  63.6070090  14.5013980  67.4361210  62.8521530  15.7785480
  69.1707470  67.3118780  13.8527640  70.1229220  67.2276800  13.8027880
  69.0235690  67.9760490  14.5261430  56.6240280  59.9632080  14.2378870
  57.1279300  59.3839360  14.8095100  55.8847700  60.2472310  14.7755240
  63.6778220  61.3703070  13.7714390  62.9123890  61.9388070  13.6869060
  63.8594180  61.0779280  12.8782620  70.8201570  63.1008400  14.3289410
  71.5611040  63.4384160  13.8256870  70.0574250  63.2700460  13.7759180
  58.6563360  58.1061670  15.1328940  58.6968700  57.8075540  16.0414170
  59.5108860  58.5069280  14.9736460  60.5969170  56.6853770  13.1003430
  60.0665630  56.1944720  12.4726770  61.2657240  57.1137970  12.5661360
  69.4947230  61.1523230  12.8644620  69.9088250  61.3068310  13.7135040
  68.5598230  61.2778450  13.0270400  69.9669400  58.4919390  14.8683770
  70.5490170  57.7371710  14.7804250  70.1431170  59.0226830  14.0915250
  61.0841470  53.6516140  13.1800720  60.9898340  53.0336890  12.4551590
  60.5038860  54.3782430  12.9530630  63.8502910  52.2089380  10.2128110
  63.4020210  52.2313640   9.3673660  63.2168110  51.8108400  10.8098410
  64.2562460  61.1043710  10.8340550  64.6750570  61.9476440  10.6616790
  63.3371090  61.2415750  10.6047330  66.5926360  58.8359890  12.2178390
  66.7122570  58.2401030  12.9573230  67.4520360  58.8729580  11.7979690
  68.9314260  59.3897080  10.7940900  68.4049480  59.9139700  10.1906040
  69.2745600  60.0224470  11.4250630  62.1069880  67.4096720  11.9498280
  61.5690970  68.1342780  11.6306980  62.3603840  66.9327060  11.1595620
  63.3595130  55.3781240  13.4754210  63.9494820  55.0697090  14.1632030
  62.5415370  54.9060990  13.6314110  68.1788560  54.9947050  13.7087230
  67.4904080  54.3328590  13.6437220  68.8994580  54.5485320  14.1535690
  64.9632090  68.6447930  12.2084930  64.8890790  69.5483070  12.5157300
  64.0610930  68.3259830  12.1807000  56.3659380  65.9722520   5.5118550
  56.6962390  65.1043580   5.2797190  56.7950380  66.1781040   6.3423510
  60.9621300  64.3031530   3.1720520  60.6616840  64.1796500   4.0724430
  60.8558790  63.4440120   2.7636250  56.8549590  66.8393110   8.2500180
  56.4180580  67.0193910   9.0824330  57.4227270  67.5967730   8.1081900
  72.4911770  66.3410110  12.5377490  71.8913760  66.4002670  11.7941410
  72.6205670  65.4015090  12.6674340  56.6874020  59.3513340   4.6089060
  56.0322860  59.0824980   3.9648760  57.5251970  59.2417820   4.1591040
  74.1929650  61.6825510   5.2223330  74.5638480  60.8992830   4.8159300
  74.8331580  62.3714610   5.0440630  71.1763410  63.0662090  10.6353650
  70.3623250  63.4959250  10.8979440  71.5837610  63.6780500  10.0222700
  73.1354190  59.0578770   2.5283350  72.7597790  58.2906700   2.0964640
  72.4057310  59.4401470   3.0158280  57.7249950  59.7365910   9.1492400
  58.0922990  59.6493310  10.0288420  57.1560770  58.9732460   9.0499260
  72.5253810  58.2050290  12.1622870  72.2939900  57.9763040  11.2620820
  72.7858360  59.1249840  12.1167760  57.2765950  56.6475000  13.0550820
  56.3822000  56.6141760  13.3944530  57.8163500  56.8461790  13.8202070
  70.9641880  53.4306720  14.9402570  71.8412060  53.4390120  15.3236570
  70.9762720  52.6937560  14.3294920  72.4105150  57.2836260   5.8290590
  72.9342630  56.7898910   5.1980760  72.9964570  57.4186620   6.5738160
  72.5894870  57.3676130   9.3510140  71.6397580  57.3339670   9.4655130
  72.7707880  58.2776240   9.1159910  71.9005120  56.5409610   1.7683000
  72.3964240  56.3080480   2.5531880  71.7021190  55.7021450   1.3520640
  57.7805660  50.9223330   7.4034040  58.4281850  50.3720710   6.9629200
  58.2007500  51.1766480   8.2249850  73.3292280  55.1770560   4.3020680
  73.2191560  55.0226600   5.2402950  74.0899870  54.6491500   4.0596090
  71.6758000  51.1164690  10.7603680  72.3130220  51.7298830  11.1262870
  71.8232890  51.1525350   9.8152910  71.2339460  67.8180690   4.1621920
  71.8298530  67.4965260   3.4856340  71.4917610  67.3452510   4.9535190
  57.5337660  51.0779000  10.1459360  57.1852480  51.5342820  10.9117540
  57.2025360  50.1836130  10.2281790  59.1402030  64.2498600  14.3112550
  59.0971660  63.8791510  15.1927010  59.2713040  65.1876170  14.4514370
  62.8408060  65.8058190   9.9122270  62.5999420  66.0732750   9.0252790
  63.7810700  65.9763920   9.9673130  65.0462480  52.2690880  13.6678780
  64.9851370  52.8612710  14.4174190  65.9862860  52.1616840  13.5229040
  67.6837040  51.9260940  13.3071070  68.2977450  52.2440230  12.6452150
  68.2286600  51.4409530  13.9266930  74.1012220  67.8252570  10.7132910
  73.6070500  68.2221440   9.9960040  73.4925510  67.2001780  11.1070190
  58.2058300  50.6055200  13.4210130  58.7541290  50.4243250  12.6576240
  58.2713610  49.8149310  13.9566440  58.9790060  67.1960850  11.4310330
  58.3850380  67.0645550  12.1700370  58.9713900  66.3598990  10.9652430
  68.4245080  50.4893080   9.6340360  67.5504920  50.8228190   9.4313290
  68.3155830  50.0166260  10.4592230  69.3317060  52.6963950  11.0182080
  69.0030420  51.8815710  10.6383810  70.2799360  52.6533760  10.8947770
  71.7851670  68.4675990   7.9919650  71.3254640  69.2191800   7.6177670
  71.1564130  67.7482460   7.9334450  58.6102290  64.5619230  10.3818370
  57.8836350  63.9424520  10.3144320  58.6711440  64.9559840   9.5116450
  62.2147390  66.7764230   7.1667780  62.7312410  66.1651590   6.6416040
  62.8644770  67.2793010   7.6578790  64.9542890  67.6672720   7.9936760
  65.2420700  67.4127020   7.1169770  65.4666110  67.1150080   8.5842330
  66.1719900  51.4062920   8.5733270  65.3891690  51.8808420   8.8530030
  65.8782830  50.5017750   8.4646450  70.7240970  52.1086020   6.6182360
  71.1649060  52.0531120   5.7703960  70.4548560  53.0244030   6.6892540
  72.5879540  51.7401260   4.6291180  72.5267940  50.7962480   4.4822200
  73.3671570  51.8481350   5.1744640  56.8932290  67.8793620   3.5915130
  56.7254330  67.2464300   4.2897020  56.0266800  68.0853020   3.2409320
  64.0574120  53.8249670   4.0849300  63.2448630  53.4506560   3.7445180
  64.5615760  53.0694750   4.3870490  68.5599100  50.4892120   5.3232370
  69.1628470  51.0612330   5.7980890  67.8192090  51.0531560   5.1006270
  62.0823300  51.9749590   2.6894350  61.4526040  51.2736900   2.8564480
  61.5428440  52.7353720   2.4727510  65.0215250  68.5888820  15.3604960
  65.9482560  68.3533090  15.4040920  65.0065680  69.4160820  14.8790990
  73.2560310  68.1314390   2.3579210  73.4312500  67.4452130   1.7140130
  72.5581880  68.6561440   1.9655880  62.2078860  51.2533570  15.1246840
  61.9263130  51.7567170  14.3607660  62.5898560  50.4555320  14.7588970
  68.8094320  50.6687150  15.7027310  68.6959770  50.9881760  16.5978830
  69.6264060  51.0699660  15.4064590  71.5892810  67.8158680  15.1846000
  72.3818130  67.3207910  14.9771960  71.8825960  68.4948820  15.7921610
  67.7152470  39.9136130  61.1636010  67.6346520  38.9990740  60.8927720
  67.3016890  40.4103200  60.4575720  65.8470510  41.6915150  63.0445280
  65.0712610  41.2115590  63.3343850  66.4983440  41.0120800  62.8701440
  59.8636340  42.0034960  63.9221040  59.0321220  41.7483670  64.3217550
  60.4717320  42.0745730  64.6578960  69.8677940  46.0975340  61.8244410
  69.4059470  45.3262580  62.1531580  70.6803490  46.1241410  62.3296860
  59.8437600  46.0375050  64.1179060  60.1465640  45.1472790  63.9389280
  60.5881190  46.5945270  63.8901310  58.2728290  36.9636850  57.7063430
  57.3844990  37.3052820  57.6043310  58.5569480  36.7637170  56.8144260
  56.2361300  39.5642500  63.5903130  56.8077410  38.7964700  63.5906770
  56.2362840  39.8631260  62.6809740  66.0941250  48.3833350  61.4448400
  65.4752690  48.8390850  60.8742840  66.9493030  48.5384810  61.0438100
  65.2879500  44.3672340  63.0515440  65.2187780  43.4262280  62.8904570
  66.0499360  44.4573750  63.6238010  57.4786170  34.9726860  65.3772060
  57.2989010  34.0752610  65.6574820  57.0766250  35.5198730  66.0519010
  66.3184670  37.1742720  63.2784370  66.6949490  36.3014600  63.1658040
  66.2204180  37.5101420  62.3874810  60.4489680  35.5468350  58.7401810
  60.5556430  36.4472080  59.0470570  59.5382040  35.4986320  58.4496460
  70.1008790  34.6693160  60.2112710  70.9218410  34.1789730  60.2538190
  70.1342870  35.2590820  60.9644550  58.0972840  37.4687360  63.9854400
  58.7782950  37.7325730  64.6041800  57.7820890  36.6288230  64.3192410
  62.2897410  38.5154720  63.0726990  62.7975630  39.0135690  63.7132010
  62.8210650  37.7389920  62.8966350  74.3908340  36.6859910  66.7756340
  73.6860510  37.0741620  66.2571450  74.6566260  37.3810200  67.3777270
  60.5733510  33.1553280  67.3390410  60.5751950  33.6725670  66.5336310
  59.7437820  32.6783460  67.3160340  66.9604600  43.2672590  58.8380310
  66.3421870  43.7322040  58.2743030  67.4727850  43.9600070  59.2549820
  61.8236360  42.7948460  65.5163910  61.4905740  43.4217380  66.1584980
  62.0003040  43.3210340  64.7365580  70.3370270  36.6093540  62.9840250
  69.6325840  36.8978430  63.5643360  70.6982430  37.4193650  62.6239810
  60.2548840  34.8663240  65.3460860  60.5965650  35.7105290  65.0514730
  59.3164650  35.0146980  65.4626200  61.0355460  44.7629260  67.3313090
  61.6529460  45.4380340  67.0497540  60.1748580  45.1717240  67.2400590
  56.3287800  43.9529120  56.2119940  55.9515780  44.4416220  55.4804840
  56.5860870  44.6254400  56.8426470  71.9533050  46.2268670  65.2467730
  71.2696570  46.8967780  65.2384400  72.4927340  46.4249320  64.4812590
  73.4057190  36.0548330  63.3749460  72.4582100  36.0887310  63.5064890
  73.7307180  36.8687280  63.7598820  63.9376730  32.3545510  61.6705450
  64.2451710  31.7992400  60.9540950  63.0077430  32.4889970  61.4878440
  69.4891790  48.0712800  63.9612910  69.5018950  47.6675090  63.0935170
  68.9367010  48.8460090  63.8574340  70.7837210  44.7929020  59.0503080
  70.6733540  43.8503350  59.1752500  70.7805460  45.1544660  59.9365840
  68.8877230  42.9742640  65.2895520  69.3046020  42.7602750  64.4548980
  69.6117050  43.2315430  65.8604140  66.3257490  40.4194340  58.4065570
  65.3986770  40.3531720  58.6354040  66.4782310  41.3574470  58.2920810
  66.3126570  36.6911340  55.4032730  65.3730240  36.8525300  55.4885190
  66.6309830  37.4097020  54.8568720  72.8339330  41.3729860  65.3811760
  72.0057960  41.4422950  64.9061890  73.4289810  41.9584170  64.9127590
  70.3554780  41.9814640  58.9100820  69.7367200  41.6434190  58.2627120
  70.3379230  41.3374400  59.6180010  69.7981340  38.1599180  66.3266630
  69.3852520  38.9852890  66.5806620  69.0657290  37.5744220  66.1342990
  61.9314130  40.9459080  61.1885300  61.5271130  40.2336330  60.6931200
  62.0177250  40.6012320  62.0773340  62.3995830  44.6326640  63.3524510
  62.1024120  44.0272110  62.6732290  63.3495650  44.6703950  63.2413870
  60.6442750  37.7202290  64.9684340  61.1957340  37.8297630  64.1937590
  61.1586260  38.0939890  65.6839570  70.4881440  48.2058510  67.0147610
  70.0112000  49.0130700  66.8220220  69.8043230  47.5536840  67.1673820
  68.5319480  41.2201450  55.9173570  68.9712760  40.3823880  55.7711390
  69.2447900  41.8530850  56.0037710  66.6414860  46.1597520  59.8854810
  67.0810770  46.9021850  59.4710200  66.5801750  46.4024090  60.8093770
  72.1136620  32.4744260  54.2314610  71.8009280  32.5671090  55.1313680
  72.8749090  33.0525290  54.1812040  58.6318760  39.8404060  58.6891950
  58.5116360  40.5666150  58.0773220  58.3219650  39.0706970  58.2119860
  56.2704130  43.0119200  64.4960590  56.3484550  43.1467970  63.5516310
  56.8845810  42.3035090  64.6888710  57.5151760  44.7119390  60.9066770
  57.1079840  44.8533980  60.0520370  58.4064770  44.4279550  60.7037980
  69.3085040  49.1466640  57.2417820  69.1486180  48.8569580  58.1399650
  69.1431750  48.3706770  56.7063050  61.7873420  48.9265170  59.0189440
  61.6115900  48.0100710  58.8057240  60.9329160  49.2852460  59.2587240
  69.0111170  46.6554200  55.8015820  68.3176330  46.6531490  55.1418100
  69.7534030  46.2313520  55.3709990  68.5761100  48.2816910  59.8764310
  69.0318050  47.5006290  60.1902930  68.9153620  48.9923730  60.4205490
  56.3263650  44.0533370  67.0355050  56.4894690  43.5838730  66.2174420
  56.7916100  43.5456930  67.7003890  61.0982420  33.1839130  62.0715620
  60.6550570  33.9648670  61.7400140  61.6567410  33.5069020  62.7786560
  64.2141240  32.8049830  56.9521450  63.5895420  32.8009700  57.6774760
  64.1271360  31.9380790  56.5557420  63.1358320  33.7286460  63.9305220
  63.4330650  34.6349290  63.8497240  63.6843880  33.2405240  63.3164790
  60.8896640  38.3072700  59.7996870  60.6637560  38.0909870  60.7043490
  60.1089170  38.7401160  59.4542840  68.1194400  38.3136070  58.3987520
  67.5203290  39.0371870  58.2151140  68.6674010  38.2512850  57.6163970
  66.7259270  36.9499610  60.4290800  67.1188840  37.2671810  59.6159490
  67.0876120  36.0711490  60.5435320  55.7623440  33.5400410  62.6521000
  55.4736490  34.1103270  63.3645980  56.5069200  33.0604860  63.0152230
  55.9493670  37.4820530  53.8623720  55.8668340  38.4251290  54.0038710
  55.5976730  37.3395440  52.9836070  67.3114410  39.5405360  64.5241580
  66.5795530  40.0492170  64.8731680  66.9138750  38.7235340  64.2230360
  63.7491800  36.2159560  62.9294070  63.7527860  35.7749510  62.0798610
  64.6442920  36.5376890  63.0365890  59.5994180  36.0986050  61.8888280
  59.2594230  36.5761280  62.6455330  58.8371500  35.6451170  61.5289380
  63.8111950  37.2171640  55.9200830  63.9324770  37.1758120  56.8686650
  63.4260460  38.0795790  55.7647560  67.7740320  34.9939040  63.9364520
  67.7913060  35.4447690  64.7806370  67.5255900  34.0944680  64.1497960
  62.8233450  39.5272780  55.3184130  62.2550350  39.0791030  54.6920040
  63.5322450  39.8865560  54.7849280  64.0499770  40.2761340  64.6759480
  64.4169900  39.8019910  65.4220820  63.8604830  41.1502910  65.0167820
  56.9140260  35.0205030  60.8052950  56.6287180  34.6560700  61.6431570
  56.8519120  34.2885490  60.1916090  61.8399140  39.3169980  66.9943690
  61.5356210  40.1961960  67.2194050  62.7945600  39.3769770  67.0301130
  60.3680930  43.5230970  57.5910540  59.5943190  42.9828590  57.4309260
  61.0975560  43.0037580  57.2528300  71.1268910  42.5196330  63.3836930
  71.8468030  43.0151620  62.9933040  70.9250730  41.8414220  62.7390800
  66.5878850  33.9134290  57.5266320  65.7743460  33.4147460  57.4511630
  66.3940800  34.7532540  57.1102670  69.3027240  38.2853940  55.8228480
  70.1906860  38.5971170  55.6479820  69.2732330  37.4126190  55.4309060
  60.4118330  43.1911350  61.2289350  60.9297000  42.3879610  61.1746240
  59.9602350  43.1290490  62.0706180  65.2987830  44.4577630  56.5016650
  65.6403530  45.2019860  56.0059970  64.4700540  44.7708750  56.8641480
  71.5741510  39.5965780  55.2908340  71.4905230  40.0280000  54.4404780
  72.2935700  40.0564130  55.7235160  72.6028760  46.4508040  58.0190470
  71.9604920  45.7963660  58.2934190  72.2159420  46.8563130  57.2431140
  68.1815240  43.7793470  61.8662160  68.5339060  43.1821600  61.2063530
  67.2977570  43.4537700  62.0370410  64.2678520  44.5391160  59.2732570
  64.9549650  45.0860370  59.6540160  63.4810940  45.0831890  59.3082180
  56.4070920  40.1563980  54.7649650  57.2765770  40.4388780  55.0485570
  55.9161240  40.9699850  54.6498460  63.5705730  41.5437190  58.8857930
  64.0268510  42.3542440  59.1118120  63.2193940  41.2260330  59.7176420
  65.8738340  47.0543530  66.1150230  66.5180560  47.2602910  66.7923650
  66.2367780  46.2931930  65.6621080  59.4717510  31.8874840  59.3580450
  59.3432140  31.8792740  60.3065370  58.6479530  32.2257930  59.0071460
  67.1470420  45.0575880  64.8327680  67.7892650  44.3569040  64.9459850
  67.6719770  45.8374320  64.6524570  70.9926140  45.3424500  54.5566820
  70.7663720  44.6254940  55.1491460  70.6022340  45.0936940  53.7188570
  56.7742170  49.3691360  55.3311280  57.1339810  49.9680700  54.6768550
  56.6334510  49.9151250  56.1046310  70.5742390  43.2596440  56.2180980
  70.2864090  43.7209130  57.0058860  71.3694560  42.7994210  56.4865200
  62.7910790  46.7522560  56.1484950  62.7820890  47.4852250  55.5329460
  61.8709150  46.5054140  56.2411910  58.3917430  41.9737450  56.8931710
  57.7845380  42.7136350  56.9027010  58.8666780  42.0636810  56.0669910
  67.9650220  36.1388270  66.5688600  68.3331040  35.3183480  66.8968170
  67.1048420  36.1990160  66.9844250  71.3312250  35.0945210  57.3776160
  70.7025410  35.1990880  56.6634390  70.8364170  35.3141990  58.1670040
  65.7770390  46.8150800  54.8110140  65.8782370  46.6114790  53.8812120
  64.8772130  46.5609080  55.0157920  63.2996280  37.3731160  58.7934040
  62.5912430  37.8417500  59.2347650  63.5840760  36.7153170  59.4279230
  64.9252210  38.7927860  66.7926570  65.4237460  39.2673680  67.4578420
  65.0675160  37.8691380  66.9996600  67.3311710  34.0981820  60.2329830
  67.2079490  34.1167950  59.2839340  68.2796270  34.1460760  60.3528230
  64.4188500  49.3337120  59.5057810  64.6730000  49.2958510  58.5837180
  63.4700980  49.2070450  59.4986060  61.5031300  35.6816240  56.1684750
  62.3521830  36.1186390  56.1024940  61.1362570  35.9936500  56.9956810
  70.4241080  40.2529000  61.0816320  69.4831220  40.2679230  61.2564010
  70.7385150  39.4664960  61.5276620  60.4022720  41.9348600  54.6420280
  61.1685990  41.8229960  55.2045710  60.4797410  41.2386570  53.9897050
  59.0969480  39.3673670  55.3253170  59.1773070  38.4201180  55.4370570
  59.9889230  39.6980550  55.4313830  72.4266660  47.4237850  62.7570580
  72.5514080  48.2469020  63.2294390  73.2932220  47.2128580  62.4094730
  59.8984190  49.5169060  62.4287710  60.6346670  48.9684520  62.6996280
  60.2825110  50.3825070  62.2893700  56.7829670  45.5842630  58.3029220
  55.8569450  45.8263770  58.2934630  57.2486100  46.4116890  58.1813970
  63.0086500  48.6899370  54.2513280  63.8015110  48.9788200  53.7995070
  62.4890850  48.2591540  53.5725760  72.0616670  47.9169500  55.6750020
  71.7758180  47.5034640  54.8604200  71.8636220  48.8457210  55.5550540
  63.5263900  43.9102780  54.1155630  63.4214540  43.2955130  54.8417010
  63.3588120  43.3868670  53.3318640  66.7666630  42.9722810  54.7197620
  66.2176730  43.4192110  55.3640360  67.3885890  42.4672060  55.2435290
  62.4341750  41.9313730  56.6162920  62.8558170  41.7653600  57.4594310
  62.5592590  41.1213960  56.1218060  64.9469390  40.9551340  53.8640020
  65.4675050  40.2400360  53.4981170  65.5937790  41.5937210  54.1640530
  63.8502910  33.4345890  66.5358580  63.4020210  33.4570150  65.6904130
  63.2168110  33.0364910  67.1328880  64.2562460  42.3300220  67.1571020
  64.6750570  43.1732950  66.9847260  63.3371090  42.4672260  66.9277800
  68.9314260  40.6153590  67.1171370  68.4049480  41.1396210  66.5136510
  69.2745600  41.2480980  67.7481100  61.3300650  38.0046960  53.5621080
  61.1289710  37.1414320  53.9234420  61.1592700  37.9180320  52.6242680
  68.8088960  32.8155190  56.0907960  69.0891250  31.9723090  56.4467380
  68.0354690  33.0478300  56.6046710  60.1283450  35.1047580  53.5498960
  60.4309350  35.1115010  52.6418110  60.8678040  34.7545440  54.0466620
  63.3468380  34.0482200  54.5355160  62.9990380  33.3706190  53.9557610
  63.5481150  33.5871710  55.3498550  65.5117420  49.0362950  56.1541760
  66.4068210  49.3747920  56.1760520  65.5435050  48.3142360  55.5266040
  59.1513580  44.4090000  54.3828760  59.5888450  44.9519670  55.0386340
  59.6361310  43.5836950  54.3925100  56.3659380  47.1979030  61.8349020
  56.6962390  46.3300090  61.6027660  56.7950380  47.4037550  62.6653980
  60.9621300  45.5288040  59.4950990  60.6616840  45.4053010  60.3954900
  60.8558790  44.6696630  59.0866720  56.8549590  48.0649620  64.5730650
  56.4180580  48.2450420  65.4054800  57.4227270  48.8224240  64.4312370
  73.7313220  45.3084440  54.1977670  72.9006180  45.3761090  54.6684900
  73.9085050  46.1988560  53.8944530  73.1869680  42.0531920  56.7011870
  73.9488590  42.6228570  56.8071560  73.2024050  41.4859120  57.4720180
  56.6874020  40.5769850  60.9319530  56.0322860  40.3081490  60.2879230
  57.5251970  40.4674330  60.4821510  74.1929650  42.9082020  61.5453800
  74.5638480  42.1249340  61.1389770  74.8331580  43.5971120  61.3671100
  71.1763410  44.2918600  66.9584120  70.3623250  44.7215760  67.2209910
  71.5837610  44.9037010  66.3453170  73.2388850  42.3466290  53.8584390
  73.5137690  43.2545170  53.7303610  73.0499590  42.2828820  54.7946380
  69.6364460  35.3711140  55.1538020  70.0549340  35.1842120  54.3134680
  69.3300520  34.5190190  55.4640950  73.1354190  40.2835280  58.8513820
  72.7597790  39.5163210  58.4195110  72.4057310  40.6657980  59.3388750
  57.7249950  40.9622420  65.4722870  58.0922990  40.8749820  66.3518890
  57.1560770  40.1988970  65.3729730  55.9012100  37.7868780  56.8744860
  54.9976180  38.0498980  56.6996520  56.3852720  38.0579950  56.0944820
  72.4105150  38.5092770  62.1521060  72.9342630  38.0155420  61.5211230
  72.9964570  38.6443130  62.8968630  72.5894870  38.5932640  65.6740610
  71.6397580  38.5596180  65.7885600  72.7707880  39.5032750  65.4390380
  58.4439310  36.8434320  54.7839240  59.1531010  36.4217540  54.2986520
  57.7279250  36.9109550  54.1522590  58.0913470  32.8973650  53.8241890
  58.8141600  33.4382590  54.1423110  58.3637990  32.6237070  52.9483430
  71.9005120  37.7666120  58.0913470  72.3964240  37.5336990  58.8762350
  71.7021190  36.9277960  57.6751110  57.7805660  32.1479840  63.7264510
  58.4281850  31.5977220  63.2859670  58.2007500  32.4022990  64.5480320
  73.3292280  36.4027070  60.6251150  73.2191560  36.2483110  61.5633420
  74.0899870  35.8748010  60.3826560  71.6758000  32.3421200  67.0834150
  72.3130220  32.9555340  67.4493340  71.8232890  32.3781860  66.1383380
  74.2182550  34.2334990  53.8657290  75.1431860  34.1016170  53.6575580
  74.1958340  34.3127810  54.8193740  74.2921040  35.0045650  56.4914000
  73.4972540  34.9390770  57.0206910  74.4964320  35.9396290  56.4799350
  71.2339460  49.0437200  60.4852390  71.8298530  48.7221770  59.8086810
  71.4917610  48.5709020  61.2765660  57.5337660  32.3035510  66.4689830
  57.1852480  32.7599330  67.2348010  57.2025360  31.4092640  66.5512260
  62.8408060  47.0314700  66.2352740  62.5999420  47.2989260  65.3483260
  63.7810700  47.2020430  66.2903600  74.1012220  49.0509080  67.0363380
  73.6070500  49.4477950  66.3190510  73.4925510  48.4258290  67.4300660
  68.4245080  31.7149590  65.9570830  67.5504920  32.0484700  65.7543760
  68.3155830  31.2422770  66.7822700  69.3317060  33.9220460  67.3412550
  69.0030420  33.1072220  66.9614280  70.2799360  33.8790270  67.2178240
  71.7851670  49.6932500  64.3150120  71.3254640  50.4448310  63.9408140
  71.1564130  48.9738970  64.2564920  58.6102290  45.7875740  66.7048840
  57.8836350  45.1681030  66.6374790  58.6711440  46.1816350  65.8346920
  62.2147390  48.0020740  63.4898250  62.7312410  47.3908100  62.9646510
  62.8644770  48.5049520  63.9809260  64.9542890  48.8929230  64.3167230
  65.2420700  48.6383530  63.4400240  65.4666110  48.3406590  64.9072800
  66.1719900  32.6319430  64.8963740  65.3891690  33.1064930  65.1760500
  65.8782830  31.7274260  64.7876920  70.7240970  33.3342530  62.9412830
  71.1649060  33.2787630  62.0934430  70.4548560  34.2500540  63.0123010
  72.5879540  32.9657770  60.9521650  72.5267940  32.0218990  60.8052670
  73.3671570  33.0737860  61.4975110  56.8932290  49.1050130  59.9145600
  56.7254330  48.4720810  60.6127490  56.0266800  49.3109530  59.5639790
  57.5160310  32.9366910  57.4177460  58.2739670  33.0495790  56.8441490
  57.0537480  33.7736110  57.3720890  64.0574120  35.0506180  60.4079770
  63.2448630  34.6763070  60.0675650  64.5615760  34.2951260  60.7100960
  68.5599100  31.7148630  61.6462840  69.1628470  32.2868840  62.1211360
  67.8192090  32.2788070  61.4236740  71.7033700  32.1170190  56.9203120
  71.8984330  33.0153640  57.1870550  70.9163570  31.8857270  57.4136070
  58.4994990  47.7983360  57.3595740  57.9742610  48.1791390  56.6557700
  58.4239570  48.4234130  58.0805450  59.8885460  33.4630960  55.9579430
  60.4178220  32.6760760  55.8287380  60.5213780  34.1422150  56.1914960
  62.0823300  33.2006100  59.0124820  61.4526040  32.4993410  59.1794950
  61.5428440  33.9610230  58.7957980  73.2560310  49.3570900  58.6809680
  73.4312500  48.6708640  58.0370600  72.5581880  49.8817950  58.2886350
  61.0987960  49.7465740  56.2344990  61.8306780  49.4625020  55.6868880
  61.3581630  49.5079020  57.1244370  60.2602750  45.8630470  56.2391320
  59.6311630  46.3315570  56.7877150  60.3750580  45.0179690  56.6737510
  67.7152470  39.9136130  42.3892520  67.6346520  38.9990740  42.1184230
  67.3016890  40.4103200  41.6832230  65.8470510  41.6915150  44.2701790
  65.0712610  41.2115590  44.5600360  66.4983440  41.0120800  44.0957950
  59.8636340  42.0034960  45.1477550  59.0321220  41.7483670  45.5474060
  60.4717320  42.0745730  45.8835470  69.8677940  46.0975340  43.0500920
  69.4059470  45.3262580  43.3788090  70.6803490  46.1241410  43.5553370
  59.8437600  46.0375050  45.3435570  60.1465640  45.1472790  45.1645790
  60.5881190  46.5945270  45.1157820  58.2728290  36.9636850  38.9319940
  57.3844990  37.3052820  38.8299820  58.5569480  36.7637170  38.0400770
  56.2361300  39.5642500  44.8159640  56.8077410  38.7964700  44.8163280
  56.2362840  39.8631260  43.9066250  66.0941250  48.3833350  42.6704910
  65.4752690  48.8390850  42.0999350  66.9493030  48.5384810  42.2694610
  65.2879500  44.3672340  44.2771950  65.2187780  43.4262280  44.1161080
  66.0499360  44.4573750  44.8494520  57.4786170  34.9726860  46.6028570
  57.2989010  34.0752610  46.8831330  57.0766250  35.5198730  47.2775520
  66.3184670  37.1742720  44.5040880  66.6949490  36.3014600  44.3914550
  66.2204180  37.5101420  43.6131320  60.4489680  35.5468350  39.9658320
  60.5556430  36.4472080  40.2727080  59.5382040  35.4986320  39.6752970
  70.1008790  34.6693160  41.4369220  70.9218410  34.1789730  41.4794700
  70.1342870  35.2590820  42.1901060  58.0972840  37.4687360  45.2110910
  58.7782950  37.7325730  45.8298310  57.7820890  36.6288230  45.5448920
  62.2897410  38.5154720  44.2983500  62.7975630  39.0135690  44.9388520
  62.8210650  37.7389920  44.1222860  74.3908340  36.6859910  48.0012850
  73.6860510  37.0741620  47.4827960  74.6566260  37.3810200  48.6033780
  60.5733510  33.1553280  48.5646920  60.5751950  33.6725670  47.7592820
  59.7437820  32.6783460  48.5416850  66.9604600  43.2672590  40.0636820
  66.3421870  43.7322040  39.4999540  67.4727850  43.9600070  40.4806330
  61.8236360  42.7948460  46.7420420  61.4905740  43.4217380  47.3841490
  62.0003040  43.3210340  45.9622090  70.3370270  36.6093540  44.2096760
  69.6325840  36.8978430  44.7899870  70.6982430  37.4193650  43.8496320
  60.2548840  34.8663240  46.5717370  60.5965650  35.7105290  46.2771240
  59.3164650  35.0146980  46.6882710  61.0355460  44.7629260  48.5569600
  61.6529460  45.4380340  48.2754050  60.1748580  45.1717240  48.4657100
  56.3287800  43.9529120  37.4376450  55.9515780  44.4416220  36.7061350
  56.5860870  44.6254400  38.0682980  71.9533050  46.2268670  46.4724240
  71.2696570  46.8967780  46.4640910  72.4927340  46.4249320  45.7069100
  73.4057190  36.0548330  44.6005970  72.4582100  36.0887310  44.7321400
  73.7307180  36.8687280  44.9855330  63.9376730  32.3545510  42.8961960
  64.2451710  31.7992400  42.1797460  63.0077430  32.4889970  42.7134950
  69.4891790  48.0712800  45.1869420  69.5018950  47.6675090  44.3191680
  68.9367010  48.8460090  45.0830850  70.7837210  44.7929020  40.2759590
  70.6733540  43.8503350  40.4009010  70.7805460  45.1544660  41.1622350
  68.8877230  42.9742640  46.5152030  69.3046020  42.7602750  45.6805490
  69.6117050  43.2315430  47.0860650  66.3257490  40.4194340  39.6322080
  65.3986770  40.3531720  39.8610550  66.4782310  41.3574470  39.5177320
  66.3126570  36.6911340  36.6289240  65.3730240  36.8525300  36.7141700
  66.6309830  37.4097020  36.0825230  72.8339330  41.3729860  46.6068270
  72.0057960  41.4422950  46.1318400  73.4289810  41.9584170  46.1384100
  70.3554780  41.9814640  40.1357330  69.7367200  41.6434190  39.4883630
  70.3379230  41.3374400  40.8436520  69.7981340  38.1599180  47.5523140
  69.3852520  38.9852890  47.8063130  69.0657290  37.5744220  47.3599500
  61.9314130  40.9459080  42.4141810  61.5271130  40.2336330  41.9187710
  62.0177250  40.6012320  43.3029850  62.3995830  44.6326640  44.5781020
  62.1024120  44.0272110  43.8988800  63.3495650  44.6703950  44.4670380
  60.6442750  37.7202290  46.1940850  61.1957340  37.8297630  45.4194100
  61.1586260  38.0939890  46.9096080  70.4881440  48.2058510  48.2404120
  70.0112000  49.0130700  48.0476730  69.8043230  47.5536840  48.3930330
  61.4914260  44.3708330  51.2288820  60.5942790  44.5948300  51.4762220
  61.5167130  44.4943270  50.2800220  68.5319480  41.2201450  37.1430080
  68.9712760  40.3823880  36.9967900  69.2447900  41.8530850  37.2294220
  60.3185480  41.2421650  49.8046190  60.1793250  42.1144450  50.1733590
  59.4366840  40.8994460  49.6594130  66.6414860  46.1597520  41.1111320
  67.0810770  46.9021850  40.6966710  66.5801750  46.4024090  42.0350280
  62.1165830  47.1843350  52.0131340  62.0881260  47.5886300  51.1459770
  61.9530800  46.2553710  51.8502940  72.1136620  32.4744260  35.4571120
  71.8009280  32.5671090  36.3570190  72.8749090  33.0525290  35.4068550
  58.6318760  39.8404060  39.9148460  58.5116360  40.5666150  39.3029730
  58.3219650  39.0706970  39.4376370  74.0680650  47.9670450  53.3095510
  74.5440370  48.4453340  53.9884590  74.6887810  47.8987940  52.5841010
  56.2704130  43.0119200  45.7217100  56.3484550  43.1467970  44.7772820
  56.8845810  42.3035090  45.9145220  57.5151760  44.7119390  42.1323280
  57.1079840  44.8533980  41.2776880  58.4064770  44.4279550  41.9294490
  73.4713900  45.1583300  50.4695520  73.5976960  44.9195180  49.5512700
  73.5135280  44.3267840  50.9417600  67.3330640  48.8611300  49.0390330
  67.8475310  48.7719310  49.8412760  66.4899720  49.2071000  49.3318240
  69.3085040  49.1466640  38.4674330  69.1486180  48.8569580  39.3656160
  69.1431750  48.3706770  37.9319560  61.7873420  48.9265170  40.2445950
  61.6115900  48.0100710  40.0313750  60.9329160  49.2852460  40.4843750
  69.0111170  46.6554200  37.0272330  68.3176330  46.6531490  36.3674610
  69.7534030  46.2313520  36.5966500  68.5761100  48.2816910  41.1020820
  69.0318050  47.5006290  41.4159440  68.9153620  48.9923730  41.6462000
  73.3237910  37.2115760  51.4345260  72.7082180  37.7195430  50.9060720
  73.0034330  36.3114090  51.3771200  56.3263650  44.0533370  48.2611560
  56.4894690  43.5838730  47.4430930  56.7916100  43.5456930  48.9260400
  61.0982420  33.1839130  43.2972130  60.6550570  33.9648670  42.9656650
  61.6567410  33.5069020  44.0043070  65.3852230  36.0507650  48.9007450
  64.9231600  36.2590670  49.7127390  64.9830340  35.2367000  48.5978120
  70.3856740  37.2716600  50.0304110  69.5350330  36.9722350  50.3513180
  70.2258530  37.5158610  49.1187930  67.4806450  38.7718350  52.1302900
  67.8059860  37.9382100  51.7905130  68.2686780  39.2946870  52.2781230
  64.2141240  32.8049830  38.1777960  63.5895420  32.8009700  38.9031270
  64.1271360  31.9380790  37.7813930  63.1358320  33.7286460  45.1561730
  63.4330650  34.6349290  45.0753750  63.6843880  33.2405240  44.5421300
  60.8896640  38.3072700  41.0253380  60.6637560  38.0909870  41.9300000
  60.1089170  38.7401160  40.6799350  68.1194400  38.3136070  39.6244030
  67.5203290  39.0371870  39.4407650  68.6674010  38.2512850  38.8420480
  63.3295850  39.2058280  51.6913650  63.2339450  38.2653010  51.5414050
  64.1727830  39.4273350  51.2961720  66.7259270  36.9499610  41.6547310
  67.1188840  37.2671810  40.8416000  67.0876120  36.0711490  41.7691830
  58.4606390  35.6171950  49.8447430  58.0669780  36.4647160  50.0520210
  57.7724790  34.9798320  50.0356070  65.0351440  35.7006920  52.9144170
  64.3449760  35.5079120  53.5490260  65.7783740  35.9841560  53.4468470
  55.7623440  33.5400410  43.8777510  55.4736490  34.1103270  44.5902490
  56.5069200  33.0604860  44.2408740  55.9493670  37.4820530  35.0880230
  55.8668340  38.4251290  35.2295220  55.5976730  37.3395440  34.2092580
  67.3114410  39.5405360  45.7498090  66.5795530  40.0492170  46.0988190
  66.9138750  38.7235340  45.4486870  63.7491800  36.2159560  44.1550580
  63.7527860  35.7749510  43.3055120  64.6442920  36.5376890  44.2622400
  59.5994180  36.0986050  43.1144790  59.2594230  36.5761280  43.8711840
  58.8371500  35.6451170  42.7545890  63.8111950  37.2171640  37.1457340
  63.9324770  37.1758120  38.0943160  63.4260460  38.0795790  36.9904070
  67.7740320  34.9939040  45.1621030  67.7913060  35.4447690  46.0062880
  67.5255900  34.0944680  45.3754470  62.8233450  39.5272780  36.5440640
  62.2550350  39.0791030  35.9176550  63.5322450  39.8865560  36.0105790
  71.2011070  32.4071220  51.0007410  71.5256840  31.6760880  51.5265390
  71.2367580  32.0884860  50.0988400  57.9002630  43.4284800  50.4207370
  57.5157420  42.7878470  51.0190330  58.2114820  44.1320920  50.9902100
  64.0499770  40.2761340  45.9015990  64.4169900  39.8019910  46.6477330
  63.8604830  41.1502910  46.2424330  56.9140260  35.0205030  42.0309460
  56.6287180  34.6560700  42.8688080  56.8519120  34.2885490  41.4172600
  61.8399140  39.3169980  48.2200200  61.5356210  40.1961960  48.4450560
  62.7945600  39.3769770  48.2557640  60.3680930  43.5230970  38.8167050
  59.5943190  42.9828590  38.6565770  61.0975560  43.0037580  38.4784810
  71.1268910  42.5196330  44.6093440  71.8468030  43.0151620  44.2189550
  70.9250730  41.8414220  43.9647310  66.5878850  33.9134290  38.7522830
  65.7743460  33.4147460  38.6768140  66.3940800  34.7532540  38.3359180
  66.5087710  42.5905390  50.4962440  66.4425020  41.6701060  50.2420030
  65.8792850  42.6880830  51.2107080  69.3027240  38.2853940  37.0484990
  70.1906860  38.5971170  36.8736330  69.2732330  37.4126190  36.6565570
  60.4118330  43.1911350  42.4545860  60.9297000  42.3879610  42.4002750
  59.9602350  43.1290490  43.2962690  65.2987830  44.4577630  37.7273160
  65.6403530  45.2019860  37.2316480  64.4700540  44.7708750  38.0897990
  57.8962870  40.1572720  49.3671560  57.5377810  40.8226570  49.9544900
  57.6017430  39.3256270  49.7384180  61.0975990  40.6156960  52.2511110
  60.7976130  40.7614140  51.3538930  61.8687230  40.0562250  52.1584500
  66.4404440  45.4125960  50.2466240  66.4548980  44.4806920  50.0285150
  65.7329540  45.4985720  50.8856010  71.5741510  39.5965780  36.5164850
  71.4905230  40.0280000  35.6661290  72.2935700  40.0564130  36.9491670
  72.6515650  42.0533300  49.5934820  71.9263840  42.6462080  49.3964210
  73.1791110  42.0456840  48.7948190  72.6028760  46.4508040  39.2446980
  71.9604920  45.7963660  39.5190700  72.2159420  46.8563130  38.4687650
  68.1815240  43.7793470  43.0918670  68.5339060  43.1821600  42.4320040
  67.2977570  43.4537700  43.2626920  64.2678520  44.5391160  40.4989080
  64.9549650  45.0860370  40.8796670  63.4810940  45.0831890  40.5338690
  56.4070920  40.1563980  35.9906160  57.2765770  40.4388780  36.2742080
  55.9161240  40.9699850  35.8754970  63.5705730  41.5437190  40.1114440
  64.0268510  42.3542440  40.3374630  63.2193940  41.2260330  40.9432930
  65.8738340  47.0543530  47.3406740  66.5180560  47.2602910  48.0180160
  66.2367780  46.2931930  46.8877590  59.4717510  31.8874840  40.5836960
  59.3432140  31.8792740  41.5321880  58.6479530  32.2257930  40.2327970
  67.1470420  45.0575880  46.0584190  67.7892650  44.3569040  46.1716360
  67.6719770  45.8374320  45.8781080  70.9926140  45.3424500  35.7823330
  70.7663720  44.6254940  36.3747970  70.6022340  45.0936940  34.9445080
  68.9208040  45.8570780  49.2620250  69.2564280  46.4437470  49.9398170
  68.0008380  45.7263490  49.4918040  56.7742170  49.3691360  36.5567790
  57.1339810  49.9680700  35.9025060  56.6334510  49.9151250  37.3302820
  56.4711440  33.6465960  50.0443660  55.7569960  33.8462880  50.6496270
  56.8906480  32.8705530  50.4158460  70.5742390  43.2596440  37.4437490
  70.2864090  43.7209130  38.2315370  71.3694560  42.7994210  37.7121710
  56.7584030  47.6346220  51.0310190  56.8675150  46.6940960  50.8905580
  56.1064590  47.9000970  50.3823920  64.7496620  45.9062110  52.4308310
  64.4293490  45.1871350  52.9754000  64.0754980  46.5817180  52.5044370
  62.7910790  46.7522560  37.3741460  62.7820890  47.4852250  36.7585970
  61.8709150  46.5054140  37.4668420  58.3917430  41.9737450  38.1188220
  57.7845380  42.7136350  38.1283520  58.8666780  42.0636810  37.2926420
  67.9650220  36.1388270  47.7945110  68.3331040  35.3183480  48.1224680
  67.1048420  36.1990160  48.2100760  71.3312250  35.0945210  38.6032670
  70.7025410  35.1990880  37.8890900  70.8364170  35.3141990  39.3926550
  65.7770390  46.8150800  36.0366650  65.8782370  46.6114790  35.1068630
  64.8772130  46.5609080  36.2414430  63.2996280  37.3731160  40.0190550
  62.5912430  37.8417500  40.4604160  63.5840760  36.7153170  40.6535740
  64.9252210  38.7927860  48.0183080  65.4237460  39.2673680  48.6834930
  65.0675160  37.8691380  48.2253110  67.3311710  34.0981820  41.4586340
  67.2079490  34.1167950  40.5095850  68.2796270  34.1460760  41.5784740
  64.4188500  49.3337120  40.7314320  64.6730000  49.2958510  39.8093690
  63.4700980  49.2070450  40.7242570  61.5031300  35.6816240  37.3941260
  62.3521830  36.1186390  37.3281450  61.1362570  35.9936500  38.2213320
  72.1319070  35.0095820  48.8611470  71.6292670  35.7501220  49.2005280
  72.9475730  35.3979820  48.5448260  70.4241080  40.2529000  42.3072830
  69.4831220  40.2679230  42.4820520  70.7385150  39.4664960  42.7533130
  60.4022720  41.9348600  35.8676790  61.1685990  41.8229960  36.4302220
  60.4797410  41.2386570  35.2153560  59.0969480  39.3673670  36.5509680
  59.1773070  38.4201180  36.6627080  59.9889230  39.6980550  36.6570340
  72.4266660  47.4237850  43.9827090  72.5514080  48.2469020  44.4550900
  73.2932220  47.2128580  43.6351240  59.8984190  49.5169060  43.6544220
  60.6346670  48.9684520  43.9252790  60.2825110  50.3825070  43.5150210
  56.7829670  45.5842630  39.5285730  55.8569450  45.8263770  39.5191140
  57.2486100  46.4116890  39.4070480  58.9042470  48.7015130  52.8429800
  59.7055200  49.0227180  53.2565200  58.3894290  48.3410710  53.5649710
  63.0086500  48.6899370  35.4769790  63.8015110  48.9788200  35.0251580
  62.4890850  48.2591540  34.7982270  67.7407100  44.8095000  52.7905210
  67.1345260  44.8326600  52.0500960  67.4361210  44.0778040  53.3272460
  69.1707470  48.5375290  51.4014620  70.1229220  48.4533310  51.3514860
  69.0235690  49.2017000  52.0748410  72.0616670  47.9169500  36.9006530
  71.7758180  47.5034640  36.0860710  71.8636220  48.8457210  36.7807050
  56.6240280  41.1888590  51.7865850  57.1279300  40.6095870  52.3582080
  55.8847700  41.4728820  52.3242220  63.5263900  43.9102780  35.3412140
  63.4214540  43.2955130  36.0673520  63.3588120  43.3868670  34.5575150
  63.6778220  42.5959580  51.3201370  62.9123890  43.1644580  51.2356040
  63.8594180  42.3035790  50.4269600  66.7666630  42.9722810  35.9454130
  66.2176730  43.4192110  36.5896870  67.3885890  42.4672060  36.4691800
  70.8201570  44.3264910  51.8776390  71.5611040  44.6640670  51.3743850
  70.0574250  44.4956970  51.3246160  58.6563360  39.3318180  52.6815920
  58.6968700  39.0332050  53.5901150  59.5108860  39.7325790  52.5223440
  62.4341750  41.9313730  37.8419430  62.8558170  41.7653600  38.6850820
  62.5592590  41.1213960  37.3474570  60.5969170  37.9110280  50.6490410
  60.0665630  37.4201230  50.0213750  61.2657240  38.3394480  50.1148340
  64.9469390  40.9551340  35.0896530  65.4675050  40.2400360  34.7237680
  65.5937790  41.5937210  35.3897040  69.4947230  42.3779740  50.4131600
  69.9088250  42.5324820  51.2622020  68.5598230  42.5034960  50.5757380
  69.9669400  39.7175900  52.4170750  70.5490170  38.9628220  52.3291230
  70.1431170  40.2483340  51.6402230  61.0841470  34.8772650  50.7287700
  60.9898340  34.2593400  50.0038570  60.5038860  35.6038940  50.5017610
  63.8502910  33.4345890  47.7615090  63.4020210  33.4570150  46.9160640
  63.2168110  33.0364910  48.3585390  64.2562460  42.3300220  48.3827530
  64.6750570  43.1732950  48.2103770  63.3371090  42.4672260  48.1534310
  66.5926360  40.0616400  49.7665370  66.7122570  39.4657540  50.5060210
  67.4520360  40.0986090  49.3466670  68.9314260  40.6153590  48.3427880
  68.4049480  41.1396210  47.7393020  69.2745600  41.2480980  48.9737610
  61.3300650  38.0046960  34.7877590  61.1289710  37.1414320  35.1490930
  61.1592700  37.9180320  33.8499190  62.1069880  48.6353230  49.4985260
  61.5690970  49.3599290  49.1793960  62.3603840  48.1583570  48.7082600
  63.3595130  36.6037750  51.0241190  63.9494820  36.2953600  51.7119010
  62.5415370  36.1317500  51.1801090  68.1788560  36.2203560  51.2574210
  67.4904080  35.5585100  51.1924200  68.8994580  35.7741830  51.7022670
  68.8088960  32.8155190  37.3164470  69.0891250  31.9723090  37.6723890
  68.0354690  33.0478300  37.8303220  60.1283450  35.1047580  34.7755470
  60.4309350  35.1115010  33.8674620  60.8678040  34.7545440  35.2723130
  64.9632090  49.8704440  49.7571910  64.8890790  50.7739580  50.0644280
  64.0610930  49.5516340  49.7293980  63.3468380  34.0482200  35.7611670
  62.9990380  33.3706190  35.1814120  63.5481150  33.5871710  36.5755060
  65.5117420  49.0362950  37.3798270  66.4068210  49.3747920  37.4017030
  65.5435050  48.3142360  36.7522550  59.1513580  44.4090000  35.6085270
  59.5888450  44.9519670  36.2642850  59.6361310  43.5836950  35.6181610
  56.3659380  47.1979030  43.0605530  56.6962390  46.3300090  42.8284170
  56.7950380  47.4037550  43.8910490  60.9621300  45.5288040  40.7207500
  60.6616840  45.4053010  41.6211410  60.8558790  44.6696630  40.3123230
  56.8549590  48.0649620  45.7987160  56.4180580  48.2450420  46.6311310
  57.4227270  48.8224240  45.6568880  72.4911770  47.5666620  50.0864470
  71.8913760  47.6259180  49.3428390  72.6205670  46.6271600  50.2161320
  73.7313220  45.3084440  35.4234180  72.9006180  45.3761090  35.8941410
  73.9085050  46.1988560  35.1201040  73.1869680  42.0531920  37.9268380
  73.9488590  42.6228570  38.0328070  73.2024050  41.4859120  38.6976690
  56.6874020  40.5769850  42.1576040  56.0322860  40.3081490  41.5135740
  57.5251970  40.4674330  41.7078020  74.1929650  42.9082020  42.7710310
  74.5638480  42.1249340  42.3646280  74.8331580  43.5971120  42.5927610
  71.1763410  44.2918600  48.1840630  70.3623250  44.7215760  48.4466420
  71.5837610  44.9037010  47.5709680  73.2388850  42.3466290  35.0840900
  73.5137690  43.2545170  34.9560120  73.0499590  42.2828820  36.0202890
  69.6364460  35.3711140  36.3794530  70.0549340  35.1842120  35.5391190
  69.3300520  34.5190190  36.6897460  73.1354190  40.2835280  40.0770330
  72.7597790  39.5163210  39.6451620  72.4057310  40.6657980  40.5645260
  57.7249950  40.9622420  46.6979380  58.0922990  40.8749820  47.5775400
  57.1560770  40.1988970  46.5986240  72.5253810  39.4306800  49.7109850
  72.2939900  39.2019550  48.8107800  72.7858360  40.3506350  49.6654740
  57.2765950  37.8731510  50.6037800  56.3822000  37.8398270  50.9431510
  57.8163500  38.0718300  51.3689050  70.9641880  34.6563230  52.4889550
  71.8412060  34.6646630  52.8723550  70.9762720  33.9194070  51.8781900
  55.9012100  37.7868780  38.1001370  54.9976180  38.0498980  37.9253030
  56.3852720  38.0579950  37.3201330  72.4105150  38.5092770  43.3777570
  72.9342630  38.0155420  42.7467740  72.9964570  38.6443130  44.1225140
  72.5894870  38.5932640  46.8997120  71.6397580  38.5596180  47.0142110
  72.7707880  39.5032750  46.6646890  58.4439310  36.8434320  36.0095750
  59.1531010  36.4217540  35.5243030  57.7279250  36.9109550  35.3779100
  58.0913470  32.8973650  35.0498400  58.8141600  33.4382590  35.3679620
  58.3637990  32.6237070  34.1739940  71.9005120  37.7666120  39.3169980
  72.3964240  37.5336990  40.1018860  71.7021190  36.9277960  38.9007620
  57.7805660  32.1479840  44.9521020  58.4281850  31.5977220  44.5116180
  58.2007500  32.4022990  45.7736830  73.3292280  36.4027070  41.8507660
  73.2191560  36.2483110  42.7889930  74.0899870  35.8748010  41.6083070
  71.6758000  32.3421200  48.3090660  72.3130220  32.9555340  48.6749850
  71.8232890  32.3781860  47.3639890  74.2182550  34.2334990  35.0913800
  75.1431860  34.1016170  34.8832090  74.1958340  34.3127810  36.0450250
  74.2921040  35.0045650  37.7170510  73.4972540  34.9390770  38.2463420
  74.4964320  35.9396290  37.7055860  71.2339460  49.0437200  41.7108900
  71.8298530  48.7221770  41.0343320  71.4917610  48.5709020  42.5022170
  57.5337660  32.3035510  47.6946340  57.1852480  32.7599330  48.4604520
  57.2025360  31.4092640  47.7768770  59.1402030  45.4755110  51.8599530
  59.0971660  45.1048020  52.7413990  59.2713040  46.4132680  52.0001350
  62.8408060  47.0314700  47.4609250  62.5999420  47.2989260  46.5739770
  63.7810700  47.2020430  47.5160110  65.0462480  33.4947390  51.2165760
  64.9851370  34.0869220  51.9661170  65.9862860  33.3873350  51.0716020
  67.6837040  33.1517450  50.8558050  68.2977450  33.4696740  50.1939130
  68.2286600  32.6666040  51.4753910  74.1012220  49.0509080  48.2619890
  73.6070500  49.4477950  47.5447020  73.4925510  48.4258290  48.6557170
  58.2058300  31.8311710  50.9697110  58.7541290  31.6499760  50.2063220
  58.2713610  31.0405820  51.5053420  58.9790060  48.4217360  48.9797310
  58.3850380  48.2902060  49.7187350  58.9713900  47.5855500  48.5139410
  68.4245080  31.7149590  47.1827340  67.5504920  32.0484700  46.9800270
  68.3155830  31.2422770  48.0079210  69.3317060  33.9220460  48.5669060
  69.0030420  33.1072220  48.1870790  70.2799360  33.8790270  48.4434750
  71.7851670  49.6932500  45.5406630  71.3254640  50.4448310  45.1664650
  71.1564130  48.9738970  45.4821430  58.6102290  45.7875740  47.9305350
  57.8836350  45.1681030  47.8631300  58.6711440  46.1816350  47.0603430
  62.2147390  48.0020740  44.7154760  62.7312410  47.3908100  44.1903020
  62.8644770  48.5049520  45.2065770  64.9542890  48.8929230  45.5423740
  65.2420700  48.6383530  44.6656750  65.4666110  48.3406590  46.1329310
  66.1719900  32.6319430  46.1220250  65.3891690  33.1064930  46.4017010
  65.8782830  31.7274260  46.0133430  70.7240970  33.3342530  44.1669340
  71.1649060  33.2787630  43.3190940  70.4548560  34.2500540  44.2379520
  72.5879540  32.9657770  42.1778160  72.5267940  32.0218990  42.0309180
  73.3671570  33.0737860  42.7231620  56.8932290  49.1050130  41.1402110
  56.7254330  48.4720810  41.8384000  56.0266800  49.3109530  40.7896300
  57.5160310  32.9366910  38.6433970  58.2739670  33.0495790  38.0698000
  57.0537480  33.7736110  38.5977400  64.0574120  35.0506180  41.6336280
  63.2448630  34.6763070  41.2932160  64.5615760  34.2951260  41.9357470
  68.5599100  31.7148630  42.8719350  69.1628470  32.2868840  43.3467870
  67.8192090  32.2788070  42.6493250  71.7033700  32.1170190  38.1459630
  71.8984330  33.0153640  38.4127060  70.9163570  31.8857270  38.6392580
  58.4994990  47.7983360  38.5852250  57.9742610  48.1791390  37.8814210
  58.4239570  48.4234130  39.3061960  59.8885460  33.4630960  37.1835940
  60.4178220  32.6760760  37.0543890  60.5213780  34.1422150  37.4171470
  62.0823300  33.2006100  40.2381330  61.4526040  32.4993410  40.4051460
  61.5428440  33.9610230  40.0214490  65.0215250  49.8145330  52.9091940
  65.9482560  49.5789600  52.9527900  65.0065680  50.6417330  52.4277970
  73.2560310  49.3570900  39.9066190  73.4312500  48.6708640  39.2627110
  72.5581880  49.8817950  39.5142860  62.2078860  32.4790080  52.6733820
  61.9263130  32.9823680  51.9094640  62.5898560  31.6811830  52.3075950
  61.0987960  49.7465740  37.4601500  61.8306780  49.4625020  36.9125390
  61.3581630  49.5079020  38.3500880  60.2602750  45.8630470  37.4647830
  59.6311630  46.3315570  38.0133660  60.3750580  45.0179690  37.8994020
  68.8094320  31.8943660  53.2514290  68.6959770  32.2138270  54.1465810
  69.6264060  32.2956170  52.9551570  71.5892810  49.0415190  52.7332980
  72.3818130  48.5464420  52.5258940  71.8825960  49.7205330  53.3408590
  67.7152470  39.9136130  23.6149030  67.6346520  38.9990740  23.3440740
  67.3016890  40.4103200  22.9088740  65.8470510  41.6915150  25.4958300
  65.0712610  41.2115590  25.7856870  66.4983440  41.0120800  25.3214460
  59.8636340  42.0034960  26.3734060  59.0321220  41.7483670  26.7730570
  60.4717320  42.0745730  27.1091980  69.8677940  46.0975340  24.2757430
  69.4059470  45.3262580  24.6044600  70.6803490  46.1241410  24.7809880
  59.8437600  46.0375050  26.5692080  60.1465640  45.1472790  26.3902300
  60.5881190  46.5945270  26.3414330  58.2728290  36.9636850  20.1576450
  57.3844990  37.3052820  20.0556330  58.5569480  36.7637170  19.2657280
  56.2361300  39.5642500  26.0416150  56.8077410  38.7964700  26.0419790
  56.2362840  39.8631260  25.1322760  66.0941250  48.3833350  23.8961420
  65.4752690  48.8390850  23.3255860  66.9493030  48.5384810  23.4951120
  65.2879500  44.3672340  25.5028460  65.2187780  43.4262280  25.3417590
  66.0499360  44.4573750  26.0751030  57.4786170  34.9726860  27.8285080
  57.2989010  34.0752610  28.1087840  57.0766250  35.5198730  28.5032030
  66.3184670  37.1742720  25.7297390  66.6949490  36.3014600  25.6171060
  66.2204180  37.5101420  24.8387830  60.4489680  35.5468350  21.1914830
  60.5556430  36.4472080  21.4983590  59.5382040  35.4986320  20.9009480
  70.1008790  34.6693160  22.6625730  70.9218410  34.1789730  22.7051210
  70.1342870  35.2590820  23.4157570  58.0972840  37.4687360  26.4367420
  58.7782950  37.7325730  27.0554820  57.7820890  36.6288230  26.7705430
  62.2897410  38.5154720  25.5240010  62.7975630  39.0135690  26.1645030
  62.8210650  37.7389920  25.3479370  74.3908340  36.6859910  29.2269360
  73.6860510  37.0741620  28.7084470  74.6566260  37.3810200  29.8290290
  60.5733510  33.1553280  29.7903430  60.5751950  33.6725670  28.9849330
  59.7437820  32.6783460  29.7673360  66.9604600  43.2672590  21.2893330
  66.3421870  43.7322040  20.7256050  67.4727850  43.9600070  21.7062840
  61.8236360  42.7948460  27.9676930  61.4905740  43.4217380  28.6098000
  62.0003040  43.3210340  27.1878600  70.3370270  36.6093540  25.4353270
  69.6325840  36.8978430  26.0156380  70.6982430  37.4193650  25.0752830
  60.2548840  34.8663240  27.7973880  60.5965650  35.7105290  27.5027750
  59.3164650  35.0146980  27.9139220  61.0355460  44.7629260  29.7826110
  61.6529460  45.4380340  29.5010560  60.1748580  45.1717240  29.6913610
  56.3287800  43.9529120  18.6632960  55.9515780  44.4416220  17.9317860
  56.5860870  44.6254400  19.2939490  71.9533050  46.2268670  27.6980750
  71.2696570  46.8967780  27.6897420  72.4927340  46.4249320  26.9325610
  73.4057190  36.0548330  25.8262480  72.4582100  36.0887310  25.9577910
  73.7307180  36.8687280  26.2111840  63.9376730  32.3545510  24.1218470
  64.2451710  31.7992400  23.4053970  63.0077430  32.4889970  23.9391460
  69.4891790  48.0712800  26.4125930  69.5018950  47.6675090  25.5448190
  68.9367010  48.8460090  26.3087360  70.7837210  44.7929020  21.5016100
  70.6733540  43.8503350  21.6265520  70.7805460  45.1544660  22.3878860
  68.8877230  42.9742640  27.7408540  69.3046020  42.7602750  26.9062000
  69.6117050  43.2315430  28.3117160  66.3257490  40.4194340  20.8578590
  65.3986770  40.3531720  21.0867060  66.4782310  41.3574470  20.7433830
  66.3126570  36.6911340  17.8545750  65.3730240  36.8525300  17.9398210
  66.6309830  37.4097020  17.3081740  72.8339330  41.3729860  27.8324780
  72.0057960  41.4422950  27.3574910  73.4289810  41.9584170  27.3640610
  70.3554780  41.9814640  21.3613840  69.7367200  41.6434190  20.7140140
  70.3379230  41.3374400  22.0693030  69.7981340  38.1599180  28.7779650
  69.3852520  38.9852890  29.0319640  69.0657290  37.5744220  28.5856010
  61.9314130  40.9459080  23.6398320  61.5271130  40.2336330  23.1444220
  62.0177250  40.6012320  24.5286360  62.3995830  44.6326640  25.8037530
  62.1024120  44.0272110  25.1245310  63.3495650  44.6703950  25.6926890
  60.6442750  37.7202290  27.4197360  61.1957340  37.8297630  26.6450610
  61.1586260  38.0939890  28.1352590  70.4881440  48.2058510  29.4660630
  70.0112000  49.0130700  29.2733240  69.8043230  47.5536840  29.6186840
  61.4914260  44.3708330  32.4545330  60.5942790  44.5948300  32.7018730
  61.5167130  44.4943270  31.5056730  68.5319480  41.2201450  18.3686590
  68.9712760  40.3823880  18.2224410  69.2447900  41.8530850  18.4550730
  60.3185480  41.2421650  31.0302700  60.1793250  42.1144450  31.3990100
  59.4366840  40.8994460  30.8850640  66.6414860  46.1597520  22.3367830
  67.0810770  46.9021850  21.9223220  66.5801750  46.4024090  23.2606790
  62.1165830  47.1843350  33.2387850  62.0881260  47.5886300  32.3716280
  61.9530800  46.2553710  33.0759450  72.1136620  32.4744260  16.6827630
  71.8009280  32.5671090  17.5826700  72.8749090  33.0525290  16.6325060
  58.6318760  39.8404060  21.1404970  58.5116360  40.5666150  20.5286240
  58.3219650  39.0706970  20.6632880  74.0680650  47.9670450  34.5352020
  74.5440370  48.4453340  35.2141100  74.6887810  47.8987940  33.8097520
  56.2704130  43.0119200  26.9473610  56.3484550  43.1467970  26.0029330
  56.8845810  42.3035090  27.1401730  57.5151760  44.7119390  23.3579790
  57.1079840  44.8533980  22.5033390  58.4064770  44.4279550  23.1551000
  73.4713900  45.1583300  31.6952030  73.5976960  44.9195180  30.7769210
  73.5135280  44.3267840  32.1674110  67.3330640  48.8611300  30.2646840
  67.8475310  48.7719310  31.0669270  66.4899720  49.2071000  30.5574750
  69.3085040  49.1466640  19.6930840  69.1486180  48.8569580  20.5912670
  69.1431750  48.3706770  19.1576070  61.7873420  48.9265170  21.4702460
  61.6115900  48.0100710  21.2570260  60.9329160  49.2852460  21.7100260
  69.0111170  46.6554200  18.2528840  68.3176330  46.6531490  17.5931120
  69.7534030  46.2313520  17.8223010  68.5761100  48.2816910  22.3277330
  69.0318050  47.5006290  22.6415950  68.9153620  48.9923730  22.8718510
  73.3237910  37.2115760  32.6601770  72.7082180  37.7195430  32.1317230
  73.0034330  36.3114090  32.6027710  56.3263650  44.0533370  29.4868070
  56.4894690  43.5838730  28.6687440  56.7916100  43.5456930  30.1516910
  61.0982420  33.1839130  24.5228640  60.6550570  33.9648670  24.1913160
  61.6567410  33.5069020  25.2299580  65.3852230  36.0507650  30.1263960
  64.9231600  36.2590670  30.9383900  64.9830340  35.2367000  29.8234630
  70.3856740  37.2716600  31.2560620  69.5350330  36.9722350  31.5769690
  70.2258530  37.5158610  30.3444440  67.4806450  38.7718350  33.3559410
  67.8059860  37.9382100  33.0161640  68.2686780  39.2946870  33.5037740
  64.2141240  32.8049830  19.4034470  63.5895420  32.8009700  20.1287780
  64.1271360  31.9380790  19.0070440  63.1358320  33.7286460  26.3818240
  63.4330650  34.6349290  26.3010260  63.6843880  33.2405240  25.7677810
  60.8896640  38.3072700  22.2509890  60.6637560  38.0909870  23.1556510
  60.1089170  38.7401160  21.9055860  68.1194400  38.3136070  20.8500540
  67.5203290  39.0371870  20.6664160  68.6674010  38.2512850  20.0676990
  63.3295850  39.2058280  32.9170160  63.2339450  38.2653010  32.7670560
  64.1727830  39.4273350  32.5218230  66.7259270  36.9499610  22.8803820
  67.1188840  37.2671810  22.0672510  67.0876120  36.0711490  22.9948340
  58.4606390  35.6171950  31.0703940  58.0669780  36.4647160  31.2776720
  57.7724790  34.9798320  31.2612580  65.0351440  35.7006920  34.1400680
  64.3449760  35.5079120  34.7746770  65.7783740  35.9841560  34.6724980
  55.7623440  33.5400410  25.1034020  55.4736490  34.1103270  25.8159000
  56.5069200  33.0604860  25.4665250  55.9493670  37.4820530  16.3136740
  55.8668340  38.4251290  16.4551730  55.5976730  37.3395440  15.4349090
  67.3114410  39.5405360  26.9754600  66.5795530  40.0492170  27.3244700
  66.9138750  38.7235340  26.6743380  63.7491800  36.2159560  25.3807090
  63.7527860  35.7749510  24.5311630  64.6442920  36.5376890  25.4878910
  59.5994180  36.0986050  24.3401300  59.2594230  36.5761280  25.0968350
  58.8371500  35.6451170  23.9802400  63.8111950  37.2171640  18.3713850
  63.9324770  37.1758120  19.3199670  63.4260460  38.0795790  18.2160580
  67.7740320  34.9939040  26.3877540  67.7913060  35.4447690  27.2319390
  67.5255900  34.0944680  26.6010980  62.8233450  39.5272780  17.7697150
  62.2550350  39.0791030  17.1433060  63.5322450  39.8865560  17.2362300
  71.2011070  32.4071220  32.2263920  71.5256840  31.6760880  32.7521900
  71.2367580  32.0884860  31.3244910  57.9002630  43.4284800  31.6463880
  57.5157420  42.7878470  32.2446840  58.2114820  44.1320920  32.2158610
  64.0499770  40.2761340  27.1272500  64.4169900  39.8019910  27.8733840
  63.8604830  41.1502910  27.4680840  56.9140260  35.0205030  23.2565970
  56.6287180  34.6560700  24.0944590  56.8519120  34.2885490  22.6429110
  61.8399140  39.3169980  29.4456710  61.5356210  40.1961960  29.6707070
  62.7945600  39.3769770  29.4814150  60.3680930  43.5230970  20.0423560
  59.5943190  42.9828590  19.8822280  61.0975560  43.0037580  19.7041320
  71.1268910  42.5196330  25.8349950  71.8468030  43.0151620  25.4446060
  70.9250730  41.8414220  25.1903820  66.5878850  33.9134290  19.9779340
  65.7743460  33.4147460  19.9024650  66.3940800  34.7532540  19.5615690
  66.5087710  42.5905390  31.7218950  66.4425020  41.6701060  31.4676540
  65.8792850  42.6880830  32.4363590  69.3027240  38.2853940  18.2741500
  70.1906860  38.5971170  18.0992840  69.2732330  37.4126190  17.8822080
  60.4118330  43.1911350  23.6802370  60.9297000  42.3879610  23.6259260
  59.9602350  43.1290490  24.5219200  65.2987830  44.4577630  18.9529670
  65.6403530  45.2019860  18.4572990  64.4700540  44.7708750  19.3154500
  57.8962870  40.1572720  30.5928070  57.5377810  40.8226570  31.1801410
  57.6017430  39.3256270  30.9640690  61.0975990  40.6156960  33.4767620
  60.7976130  40.7614140  32.5795440  61.8687230  40.0562250  33.3841010
  66.4404440  45.4125960  31.4722750  66.4548980  44.4806920  31.2541660
  65.7329540  45.4985720  32.1112520  71.5741510  39.5965780  17.7421360
  71.4905230  40.0280000  16.8917800  72.2935700  40.0564130  18.1748180
  72.6515650  42.0533300  30.8191330  71.9263840  42.6462080  30.6220720
  73.1791110  42.0456840  30.0204700  72.6028760  46.4508040  20.4703490
  71.9604920  45.7963660  20.7447210  72.2159420  46.8563130  19.6944160
  68.1815240  43.7793470  24.3175180  68.5339060  43.1821600  23.6576550
  67.2977570  43.4537700  24.4883430  64.2678520  44.5391160  21.7245590
  64.9549650  45.0860370  22.1053180  63.4810940  45.0831890  21.7595200
  56.4070920  40.1563980  17.2162670  57.2765770  40.4388780  17.4998590
  55.9161240  40.9699850  17.1011480  63.5705730  41.5437190  21.3370950
  64.0268510  42.3542440  21.5631140  63.2193940  41.2260330  22.1689440
  65.8738340  47.0543530  28.5663250  66.5180560  47.2602910  29.2436670
  66.2367780  46.2931930  28.1134100  59.4717510  31.8874840  21.8093470
  59.3432140  31.8792740  22.7578390  58.6479530  32.2257930  21.4584480
  67.1470420  45.0575880  27.2840700  67.7892650  44.3569040  27.3972870
  67.6719770  45.8374320  27.1037590  70.9926140  45.3424500  17.0079840
  70.7663720  44.6254940  17.6004480  70.6022340  45.0936940  16.1701590
  68.9208040  45.8570780  30.4876760  69.2564280  46.4437470  31.1654680
  68.0008380  45.7263490  30.7174550  56.7742170  49.3691360  17.7824300
  57.1339810  49.9680700  17.1281570  56.6334510  49.9151250  18.5559330
  56.4711440  33.6465960  31.2700170  55.7569960  33.8462880  31.8752780
  56.8906480  32.8705530  31.6414970  70.5742390  43.2596440  18.6694000
  70.2864090  43.7209130  19.4571880  71.3694560  42.7994210  18.9378220
  56.7584030  47.6346220  32.2566700  56.8675150  46.6940960  32.1162090
  56.1064590  47.9000970  31.6080430  64.7496620  45.9062110  33.6564820
  64.4293490  45.1871350  34.2010510  64.0754980  46.5817180  33.7300880
  62.7910790  46.7522560  18.5997970  62.7820890  47.4852250  17.9842480
  61.8709150  46.5054140  18.6924930  58.3917430  41.9737450  19.3444730
  57.7845380  42.7136350  19.3540030  58.8666780  42.0636810  18.5182930
  67.9650220  36.1388270  29.0201620  68.3331040  35.3183480  29.3481190
  67.1048420  36.1990160  29.4357270  71.3312250  35.0945210  19.8289180
  70.7025410  35.1990880  19.1147410  70.8364170  35.3141990  20.6183060
  65.7770390  46.8150800  17.2623160  65.8782370  46.6114790  16.3325140
  64.8772130  46.5609080  17.4670940  63.2996280  37.3731160  21.2447060
  62.5912430  37.8417500  21.6860670  63.5840760  36.7153170  21.8792250
  64.9252210  38.7927860  29.2439590  65.4237460  39.2673680  29.9091440
  65.0675160  37.8691380  29.4509620  67.3311710  34.0981820  22.6842850
  67.2079490  34.1167950  21.7352360  68.2796270  34.1460760  22.8041250
  64.4188500  49.3337120  21.9570830  64.6730000  49.2958510  21.0350200
  63.4700980  49.2070450  21.9499080  61.5031300  35.6816240  18.6197770
  62.3521830  36.1186390  18.5537960  61.1362570  35.9936500  19.4469830
  72.1319070  35.0095820  30.0867980  71.6292670  35.7501220  30.4261790
  72.9475730  35.3979820  29.7704770  70.4241080  40.2529000  23.5329340
  69.4831220  40.2679230  23.7077030  70.7385150  39.4664960  23.9789640
  60.4022720  41.9348600  17.0933300  61.1685990  41.8229960  17.6558730
  60.4797410  41.2386570  16.4410070  59.0969480  39.3673670  17.7766190
  59.1773070  38.4201180  17.8883590  59.9889230  39.6980550  17.8826850
  72.4266660  47.4237850  25.2083600  72.5514080  48.2469020  25.6807410
  73.2932220  47.2128580  24.8607750  59.8984190  49.5169060  24.8800730
  60.6346670  48.9684520  25.1509300  60.2825110  50.3825070  24.7406720
  56.7829670  45.5842630  20.7542240  55.8569450  45.8263770  20.7447650
  57.2486100  46.4116890  20.6326990  58.9042470  48.7015130  34.0686310
  59.7055200  49.0227180  34.4821710  58.3894290  48.3410710  34.7906220
  63.0086500  48.6899370  16.7026300  63.8015110  48.9788200  16.2508090
  62.4890850  48.2591540  16.0238780  67.7407100  44.8095000  34.0161720
  67.1345260  44.8326600  33.2757470  67.4361210  44.0778040  34.5528970
  69.1707470  48.5375290  32.6271130  70.1229220  48.4533310  32.5771370
  69.0235690  49.2017000  33.3004920  72.0616670  47.9169500  18.1263040
  71.7758180  47.5034640  17.3117220  71.8636220  48.8457210  18.0063560
  56.6240280  41.1888590  33.0122360  57.1279300  40.6095870  33.5838590
  55.8847700  41.4728820  33.5498730  63.5263900  43.9102780  16.5668650
  63.4214540  43.2955130  17.2930030  63.3588120  43.3868670  15.7831660
  63.6778220  42.5959580  32.5457880  62.9123890  43.1644580  32.4612550
  63.8594180  42.3035790  31.6526110  66.7666630  42.9722810  17.1710640
  66.2176730  43.4192110  17.8153380  67.3885890  42.4672060  17.6948310
  70.8201570  44.3264910  33.1032900  71.5611040  44.6640670  32.6000360
  70.0574250  44.4956970  32.5502670  58.6563360  39.3318180  33.9072430
  58.6968700  39.0332050  34.8157660  59.5108860  39.7325790  33.7479950
  62.4341750  41.9313730  19.0675940  62.8558170  41.7653600  19.9107330
  62.5592590  41.1213960  18.5731080  60.5969170  37.9110280  31.8746920
  60.0665630  37.4201230  31.2470260  61.2657240  38.3394480  31.3404850
  64.9469390  40.9551340  16.3153040  65.4675050  40.2400360  15.9494190
  65.5937790  41.5937210  16.6153550  69.4947230  42.3779740  31.6388110
  69.9088250  42.5324820  32.4878530  68.5598230  42.5034960  31.8013890
  69.9669400  39.7175900  33.6427260  70.5490170  38.9628220  33.5547740
  70.1431170  40.2483340  32.8658740  61.0841470  34.8772650  31.9544210
  60.9898340  34.2593400  31.2295080  60.5038860  35.6038940  31.7274120
  63.8502910  33.4345890  28.9871600  63.4020210  33.4570150  28.1417150
  63.2168110  33.0364910  29.5841900  64.2562460  42.3300220  29.6084040
  64.6750570  43.1732950  29.4360280  63.3371090  42.4672260  29.3790820
  66.5926360  40.0616400  30.9921880  66.7122570  39.4657540  31.7316720
  67.4520360  40.0986090  30.5723180  68.9314260  40.6153590  29.5684390
  68.4049480  41.1396210  28.9649530  69.2745600  41.2480980  30.1994120
  61.3300650  38.0046960  16.0134100  61.1289710  37.1414320  16.3747440
  61.1592700  37.9180320  15.0755700  62.1069880  48.6353230  30.7241770
  61.5690970  49.3599290  30.4050470  62.3603840  48.1583570  29.9339110
  63.3595130  36.6037750  32.2497700  63.9494820  36.2953600  32.9375520
  62.5415370  36.1317500  32.4057600  68.1788560  36.2203560  32.4830720
  67.4904080  35.5585100  32.4180710  68.8994580  35.7741830  32.9279180
  68.8088960  32.8155190  18.5420980  69.0891250  31.9723090  18.8980400
  68.0354690  33.0478300  19.0559730  60.1283450  35.1047580  16.0011980
  60.4309350  35.1115010  15.0931130  60.8678040  34.7545440  16.4979640
  64.9632090  49.8704440  30.9828420  64.8890790  50.7739580  31.2900790
  64.0610930  49.5516340  30.9550490  63.3468380  34.0482200  16.9868180
  62.9990380  33.3706190  16.4070630  63.5481150  33.5871710  17.8011570
  65.5117420  49.0362950  18.6054780  66.4068210  49.3747920  18.6273540
  65.5435050  48.3142360  17.9779060  59.1513580  44.4090000  16.8341780
  59.5888450  44.9519670  17.4899360  59.6361310  43.5836950  16.8438120
  56.3659380  47.1979030  24.2862040  56.6962390  46.3300090  24.0540680
  56.7950380  47.4037550  25.1167000  60.9621300  45.5288040  21.9464010
  60.6616840  45.4053010  22.8467920  60.8558790  44.6696630  21.5379740
  56.8549590  48.0649620  27.0243670  56.4180580  48.2450420  27.8567820
  57.4227270  48.8224240  26.8825390  72.4911770  47.5666620  31.3120980
  71.8913760  47.6259180  30.5684900  72.6205670  46.6271600  31.4417830
  73.7313220  45.3084440  16.6490690  72.9006180  45.3761090  17.1197920
  73.9085050  46.1988560  16.3457550  73.1869680  42.0531920  19.1524890
  73.9488590  42.6228570  19.2584580  73.2024050  41.4859120  19.9233200
  56.6874020  40.5769850  23.3832550  56.0322860  40.3081490  22.7392250
  57.5251970  40.4674330  22.9334530  74.1929650  42.9082020  23.9966820
  74.5638480  42.1249340  23.5902790  74.8331580  43.5971120  23.8184120
  71.1763410  44.2918600  29.4097140  70.3623250  44.7215760  29.6722930
  71.5837610  44.9037010  28.7966190  73.2388850  42.3466290  16.3097410
  73.5137690  43.2545170  16.1816630  73.0499590  42.2828820  17.2459400
  69.6364460  35.3711140  17.6051040  70.0549340  35.1842120  16.7647700
  69.3300520  34.5190190  17.9153970  73.1354190  40.2835280  21.3026840
  72.7597790  39.5163210  20.8708130  72.4057310  40.6657980  21.7901770
  57.7249950  40.9622420  27.9235890  58.0922990  40.8749820  28.8031910
  57.1560770  40.1988970  27.8242750  72.5253810  39.4306800  30.9366360
  72.2939900  39.2019550  30.0364310  72.7858360  40.3506350  30.8911250
  57.2765950  37.8731510  31.8294310  56.3822000  37.8398270  32.1688020
  57.8163500  38.0718300  32.5945560  70.9641880  34.6563230  33.7146060
  71.8412060  34.6646630  34.0980060  70.9762720  33.9194070  33.1038410
  55.9012100  37.7868780  19.3257880  54.9976180  38.0498980  19.1509540
  56.3852720  38.0579950  18.5457840  72.4105150  38.5092770  24.6034080
  72.9342630  38.0155420  23.9724250  72.9964570  38.6443130  25.3481650
  72.5894870  38.5932640  28.1253630  71.6397580  38.5596180  28.2398620
  72.7707880  39.5032750  27.8903400  58.4439310  36.8434320  17.2352260
  59.1531010  36.4217540  16.7499540  57.7279250  36.9109550  16.6035610
  58.0913470  32.8973650  16.2754910  58.8141600  33.4382590  16.5936130
  58.3637990  32.6237070  15.3996450  71.9005120  37.7666120  20.5426490
  72.3964240  37.5336990  21.3275370  71.7021190  36.9277960  20.1264130
  57.7805660  32.1479840  26.1777530  58.4281850  31.5977220  25.7372690
  58.2007500  32.4022990  26.9993340  73.3292280  36.4027070  23.0764170
  73.2191560  36.2483110  24.0146440  74.0899870  35.8748010  22.8339580
  71.6758000  32.3421200  29.5347170  72.3130220  32.9555340  29.9006360
  71.8232890  32.3781860  28.5896400  74.2182550  34.2334990  16.3170310
  75.1431860  34.1016170  16.1088600  74.1958340  34.3127810  17.2706760
  74.2921040  35.0045650  18.9427020  73.4972540  34.9390770  19.4719930
  74.4964320  35.9396290  18.9312370  71.2339460  49.0437200  22.9365410
  71.8298530  48.7221770  22.2599830  71.4917610  48.5709020  23.7278680
  57.5337660  32.3035510  28.9202850  57.1852480  32.7599330  29.6861030
  57.2025360  31.4092640  29.0025280  59.1402030  45.4755110  33.0856040
  59.0971660  45.1048020  33.9670500  59.2713040  46.4132680  33.2257860
  62.8408060  47.0314700  28.6865760  62.5999420  47.2989260  27.7996280
  63.7810700  47.2020430  28.7416620  65.0462480  33.4947390  32.4422270
  64.9851370  34.0869220  33.1917680  65.9862860  33.3873350  32.2972530
  67.6837040  33.1517450  32.0814560  68.2977450  33.4696740  31.4195640
  68.2286600  32.6666040  32.7010420  74.1012220  49.0509080  29.4876400
  73.6070500  49.4477950  28.7703530  73.4925510  48.4258290  29.8813680
  58.2058300  31.8311710  32.1953620  58.7541290  31.6499760  31.4319730
  58.2713610  31.0405820  32.7309930  58.9790060  48.4217360  30.2053820
  58.3850380  48.2902060  30.9443860  58.9713900  47.5855500  29.7395920
  68.4245080  31.7149590  28.4083850  67.5504920  32.0484700  28.2056780
  68.3155830  31.2422770  29.2335720  69.3317060  33.9220460  29.7925570
  69.0030420  33.1072220  29.4127300  70.2799360  33.8790270  29.6691260
  71.7851670  49.6932500  26.7663140  71.3254640  50.4448310  26.3921160
  71.1564130  48.9738970  26.7077940  58.6102290  45.7875740  29.1561860
  57.8836350  45.1681030  29.0887810  58.6711440  46.1816350  28.2859940
  62.2147390  48.0020740  25.9411270  62.7312410  47.3908100  25.4159530
  62.8644770  48.5049520  26.4322280  64.9542890  48.8929230  26.7680250
  65.2420700  48.6383530  25.8913260  65.4666110  48.3406590  27.3585820
  66.1719900  32.6319430  27.3476760  65.3891690  33.1064930  27.6273520
  65.8782830  31.7274260  27.2389940  70.7240970  33.3342530  25.3925850
  71.1649060  33.2787630  24.5447450  70.4548560  34.2500540  25.4636030
  72.5879540  32.9657770  23.4034670  72.5267940  32.0218990  23.2565690
  73.3671570  33.0737860  23.9488130  56.8932290  49.1050130  22.3658620
  56.7254330  48.4720810  23.0640510  56.0266800  49.3109530  22.0152810
  57.5160310  32.9366910  19.8690480  58.2739670  33.0495790  19.2954510
  57.0537480  33.7736110  19.8233910  64.0574120  35.0506180  22.8592790
  63.2448630  34.6763070  22.5188670  64.5615760  34.2951260  23.1613980
  68.5599100  31.7148630  24.0975860  69.1628470  32.2868840  24.5724380
  67.8192090  32.2788070  23.8749760  71.7033700  32.1170190  19.3716140
  71.8984330  33.0153640  19.6383570  70.9163570  31.8857270  19.8649090
  58.4994990  47.7983360  19.8108760  57.9742610  48.1791390  19.1070720
  58.4239570  48.4234130  20.5318470  59.8885460  33.4630960  18.4092450
  60.4178220  32.6760760  18.2800400  60.5213780  34.1422150  18.6427980
  62.0823300  33.2006100  21.4637840  61.4526040  32.4993410  21.6307970
  61.5428440  33.9610230  21.2471000  65.0215250  49.8145330  34.1348450
  65.9482560  49.5789600  34.1784410  65.0065680  50.6417330  33.6534480
  73.2560310  49.3570900  21.1322700  73.4312500  48.6708640  20.4883620
  72.5581880  49.8817950  20.7399370  62.2078860  32.4790080  33.8990330
  61.9263130  32.9823680  33.1351150  62.5898560  31.6811830  33.5332460
  61.0987960  49.7465740  18.6858010  61.8306780  49.4625020  18.1381900
  61.3581630  49.5079020  19.5757390  60.2602750  45.8630470  18.6904340
  59.6311630  46.3315570  19.2390170  60.3750580  45.0179690  19.1250530
  68.8094320  31.8943660  34.4770800  68.6959770  32.2138270  35.3722320
  69.6264060  32.2956170  34.1808080  71.5892810  49.0415190  33.9589490
  72.3818130  48.5464420  33.7515450  71.8825960  49.7205330  34.5665100
  67.7152470  39.9136130   4.8405540  67.6346520  38.9990740   4.5697250
  67.3016890  40.4103200   4.1345250  65.8470510  41.6915150   6.7214810
  65.0712610  41.2115590   7.0113380  66.4983440  41.0120800   6.5470970
  59.8636340  42.0034960   7.5990570  59.0321220  41.7483670   7.9987080
  60.4717320  42.0745730   8.3348490  69.8677940  46.0975340   5.5013940
  69.4059470  45.3262580   5.8301110  70.6803490  46.1241410   6.0066390
  59.8437600  46.0375050   7.7948590  60.1465640  45.1472790   7.6158810
  60.5881190  46.5945270   7.5670840  56.2361300  39.5642500   7.2672660
  56.8077410  38.7964700   7.2676300  56.2362840  39.8631260   6.3579270
  66.0941250  48.3833350   5.1217930  65.4752690  48.8390850   4.5512370
  66.9493030  48.5384810   4.7207630  65.2879500  44.3672340   6.7284970
  65.2187780  43.4262280   6.5674100  66.0499360  44.4573750   7.3007540
  57.4786170  34.9726860   9.0541590  57.2989010  34.0752610   9.3344350
  57.0766250  35.5198730   9.7288540  66.3184670  37.1742720   6.9553900
  66.6949490  36.3014600   6.8427570  66.2204180  37.5101420   6.0644340
  60.4489680  35.5468350   2.4171340  60.5556430  36.4472080   2.7240100
  59.5382040  35.4986320   2.1265990  70.1008790  34.6693160   3.8882240
  70.9218410  34.1789730   3.9307720  70.1342870  35.2590820   4.6414080
  58.0972840  37.4687360   7.6623930  58.7782950  37.7325730   8.2811330
  57.7820890  36.6288230   7.9961940  62.2897410  38.5154720   6.7496520
  62.7975630  39.0135690   7.3901540  62.8210650  37.7389920   6.5735880
  74.3908340  36.6859910  10.4525870  73.6860510  37.0741620   9.9340980
  74.6566260  37.3810200  11.0546800  60.5733510  33.1553280  11.0159940
  60.5751950  33.6725670  10.2105840  59.7437820  32.6783460  10.9929870
  66.9604600  43.2672590   2.5149840  66.3421870  43.7322040   1.9512560
  67.4727850  43.9600070   2.9319350  61.8236360  42.7948460   9.1933440
  61.4905740  43.4217380   9.8354510  62.0003040  43.3210340   8.4135110
  70.3370270  36.6093540   6.6609780  69.6325840  36.8978430   7.2412890
  70.6982430  37.4193650   6.3009340  60.2548840  34.8663240   9.0230390
  60.5965650  35.7105290   8.7284260  59.3164650  35.0146980   9.1395730
  61.0355460  44.7629260  11.0082620  61.6529460  45.4380340  10.7267070
  60.1748580  45.1717240  10.9170120  71.9533050  46.2268670   8.9237260
  71.2696570  46.8967780   8.9153930  72.4927340  46.4249320   8.1582120
  73.4057190  36.0548330   7.0518990  72.4582100  36.0887310   7.1834420
  73.7307180  36.8687280   7.4368350  63.9376730  32.3545510   5.3474980
  64.2451710  31.7992400   4.6310480  63.0077430  32.4889970   5.1647970
  69.4891790  48.0712800   7.6382440  69.5018950  47.6675090   6.7704700
  68.9367010  48.8460090   7.5343870  70.7837210  44.7929020   2.7272610
  70.6733540  43.8503350   2.8522030  70.7805460  45.1544660   3.6135370
  68.8877230  42.9742640   8.9665050  69.3046020  42.7602750   8.1318510
  69.6117050  43.2315430   9.5373670  66.3257490  40.4194340   2.0835100
  65.3986770  40.3531720   2.3123570  66.4782310  41.3574470   1.9690340
  72.8339330  41.3729860   9.0581290  72.0057960  41.4422950   8.5831420
  73.4289810  41.9584170   8.5897120  70.3554780  41.9814640   2.5870350
  69.7367200  41.6434190   1.9396650  70.3379230  41.3374400   3.2949540
  69.7981340  38.1599180  10.0036160  69.3852520  38.9852890  10.2576150
  69.0657290  37.5744220   9.8112520  61.9314130  40.9459080   4.8654830
  61.5271130  40.2336330   4.3700730  62.0177250  40.6012320   5.7542870
  62.3995830  44.6326640   7.0294040  62.1024120  44.0272110   6.3501820
  63.3495650  44.6703950   6.9183400  60.6442750  37.7202290   8.6453870
  61.1957340  37.8297630   7.8707120  61.1586260  38.0939890   9.3609100
  70.4881440  48.2058510  10.6917140  70.0112000  49.0130700  10.4989750
  69.8043230  47.5536840  10.8443350  61.4914260  44.3708330  13.6801840
  60.5942790  44.5948300  13.9275240  61.5167130  44.4943270  12.7313240
  60.3185480  41.2421650  12.2559210  60.1793250  42.1144450  12.6246610
  59.4366840  40.8994460  12.1107150  66.6414860  46.1597520   3.5624340
  67.0810770  46.9021850   3.1479730  66.5801750  46.4024090   4.4863300
  62.1165830  47.1843350  14.4644360  62.0881260  47.5886300  13.5972790
  61.9530800  46.2553710  14.3015960  58.6318760  39.8404060   2.3661480
  58.5116360  40.5666150   1.7542750  58.3219650  39.0706970   1.8889390
  74.0680650  47.9670450  15.7608530  74.5440370  48.4453340  16.4397610
  74.6887810  47.8987940  15.0354030  56.2704130  43.0119200   8.1730120
  56.3484550  43.1467970   7.2285840  56.8845810  42.3035090   8.3658240
  57.5151760  44.7119390   4.5836300  57.1079840  44.8533980   3.7289900
  58.4064770  44.4279550   4.3807510  73.4713900  45.1583300  12.9208540
  73.5976960  44.9195180  12.0025720  73.5135280  44.3267840  13.3930620
  67.3330640  48.8611300  11.4903350  67.8475310  48.7719310  12.2925780
  66.4899720  49.2071000  11.7831260  61.7873420  48.9265170   2.6958970
  61.6115900  48.0100710   2.4826770  60.9329160  49.2852460   2.9356770
  68.5761100  48.2816910   3.5533840  69.0318050  47.5006290   3.8672460
  68.9153620  48.9923730   4.0975020  73.3237910  37.2115760  13.8858280
  72.7082180  37.7195430  13.3573740  73.0034330  36.3114090  13.8284220
  56.3263650  44.0533370  10.7124580  56.4894690  43.5838730   9.8943950
  56.7916100  43.5456930  11.3773420  61.0982420  33.1839130   5.7485150
  60.6550570  33.9648670   5.4169670  61.6567410  33.5069020   6.4556090
  65.3852230  36.0507650  11.3520470  64.9231600  36.2590670  12.1640410
  64.9830340  35.2367000  11.0491140  70.3856740  37.2716600  12.4817130
  69.5350330  36.9722350  12.8026200  70.2258530  37.5158610  11.5700950
  67.4806450  38.7718350  14.5815920  67.8059860  37.9382100  14.2418150
  68.2686780  39.2946870  14.7294250  63.1358320  33.7286460   7.6074750
  63.4330650  34.6349290   7.5266770  63.6843880  33.2405240   6.9934320
  60.8896640  38.3072700   3.4766400  60.6637560  38.0909870   4.3813020
  60.1089170  38.7401160   3.1312370  63.3295850  39.2058280  14.1426670
  63.2339450  38.2653010  13.9927070  64.1727830  39.4273350  13.7474740
  66.7259270  36.9499610   4.1060330  67.1188840  37.2671810   3.2929020
  67.0876120  36.0711490   4.2204850  58.4606390  35.6171950  12.2960450
  58.0669780  36.4647160  12.5033230  57.7724790  34.9798320  12.4869090
  65.0351440  35.7006920  15.3657190  64.3449760  35.5079120  16.0003280
  65.7783740  35.9841560  15.8981490  55.7623440  33.5400410   6.3290530
  55.4736490  34.1103270   7.0415510  56.5069200  33.0604860   6.6921760
  67.3114410  39.5405360   8.2011110  66.5795530  40.0492170   8.5501210
  66.9138750  38.7235340   7.8999890  63.7491800  36.2159560   6.6063600
  63.7527860  35.7749510   5.7568140  64.6442920  36.5376890   6.7135420
  59.5994180  36.0986050   5.5657810  59.2594230  36.5761280   6.3224860
  58.8371500  35.6451170   5.2058910  67.7740320  34.9939040   7.6134050
  67.7913060  35.4447690   8.4575900  67.5255900  34.0944680   7.8267490
  71.2011070  32.4071220  13.4520430  71.5256840  31.6760880  13.9778410
  71.2367580  32.0884860  12.5501420  57.9002630  43.4284800  12.8720390
  57.5157420  42.7878470  13.4703350  58.2114820  44.1320920  13.4415120
  64.0499770  40.2761340   8.3529010  64.4169900  39.8019910   9.0990350
  63.8604830  41.1502910   8.6937350  56.9140260  35.0205030   4.4822480
  56.6287180  34.6560700   5.3201100  56.8519120  34.2885490   3.8685620
  61.8399140  39.3169980  10.6713220  61.5356210  40.1961960  10.8963580
  62.7945600  39.3769770  10.7070660  71.1268910  42.5196330   7.0606460
  71.8468030  43.0151620   6.6702570  70.9250730  41.8414220   6.4160330
  66.5087710  42.5905390  12.9475460  66.4425020  41.6701060  12.6933050
  65.8792850  42.6880830  13.6620100  60.4118330  43.1911350   4.9058880
  60.9297000  42.3879610   4.8515770  59.9602350  43.1290490   5.7475710
  57.8962870  40.1572720  11.8184580  57.5377810  40.8226570  12.4057920
  57.6017430  39.3256270  12.1897200  61.0975990  40.6156960  14.7024130
  60.7976130  40.7614140  13.8051950  61.8687230  40.0562250  14.6097520
  66.4404440  45.4125960  12.6979260  66.4548980  44.4806920  12.4798170
  65.7329540  45.4985720  13.3369030  72.6515650  42.0533300  12.0447840
  71.9263840  42.6462080  11.8477230  73.1791110  42.0456840  11.2461210
  68.1815240  43.7793470   5.5431690  68.5339060  43.1821600   4.8833060
  67.2977570  43.4537700   5.7139940  64.2678520  44.5391160   2.9502100
  64.9549650  45.0860370   3.3309690  63.4810940  45.0831890   2.9851710
  63.5705730  41.5437190   2.5627460  64.0268510  42.3542440   2.7887650
  63.2193940  41.2260330   3.3945950  65.8738340  47.0543530   9.7919760
  66.5180560  47.2602910  10.4693180  66.2367780  46.2931930   9.3390610
  59.4717510  31.8874840   3.0349980  59.3432140  31.8792740   3.9834900
  58.6479530  32.2257930   2.6840990  67.1470420  45.0575880   8.5097210
  67.7892650  44.3569040   8.6229380  67.6719770  45.8374320   8.3294100
  68.9208040  45.8570780  11.7133270  69.2564280  46.4437470  12.3911190
  68.0008380  45.7263490  11.9431060  56.4711440  33.6465960  12.4956680
  55.7569960  33.8462880  13.1009290  56.8906480  32.8705530  12.8671480
  56.7584030  47.6346220  13.4823210  56.8675150  46.6940960  13.3418600
  56.1064590  47.9000970  12.8336940  64.7496620  45.9062110  14.8821330
  64.4293490  45.1871350  15.4267020  64.0754980  46.5817180  14.9557390
  67.9650220  36.1388270  10.2458130  68.3331040  35.3183480  10.5737700
  67.1048420  36.1990160  10.6613780  63.2996280  37.3731160   2.4703570
  62.5912430  37.8417500   2.9117180  63.5840760  36.7153170   3.1048760
  64.9252210  38.7927860  10.4696100  65.4237460  39.2673680  11.1347950
  65.0675160  37.8691380  10.6766130  67.3311710  34.0981820   3.9099360
  67.2079490  34.1167950   2.9608870  68.2796270  34.1460760   4.0297760
  64.4188500  49.3337120   3.1827340  64.6730000  49.2958510   2.2606710
  63.4700980  49.2070450   3.1755590  72.1319070  35.0095820  11.3124490
  71.6292670  35.7501220  11.6518300  72.9475730  35.3979820  10.9961280
  70.4241080  40.2529000   4.7585850  69.4831220  40.2679230   4.9333540
  70.7385150  39.4664960   5.2046150  72.4266660  47.4237850   6.4340110
  72.5514080  48.2469020   6.9063920  73.2932220  47.2128580   6.0864260
  59.8984190  49.5169060   6.1057240  60.6346670  48.9684520   6.3765810
  60.2825110  50.3825070   5.9663230  56.7829670  45.5842630   1.9798750
  55.8569450  45.8263770   1.9704160  57.2486100  46.4116890   1.8583500
  58.9042470  48.7015130  15.2942820  59.7055200  49.0227180  15.7078220
  58.3894290  48.3410710  16.0162730  67.7407100  44.8095000  15.2418230
  67.1345260  44.8326600  14.5013980  67.4361210  44.0778040  15.7785480
  69.1707470  48.5375290  13.8527640  70.1229220  48.4533310  13.8027880
  69.0235690  49.2017000  14.5261430  56.6240280  41.1888590  14.2378870
  57.1279300  40.6095870  14.8095100  55.8847700  41.4728820  14.7755240
  63.6778220  42.5959580  13.7714390  62.9123890  43.1644580  13.6869060
  63.8594180  42.3035790  12.8782620  70.8201570  44.3264910  14.3289410
  71.5611040  44.6640670  13.8256870  70.0574250  44.4956970  13.7759180
  58.6563360  39.3318180  15.1328940  58.6968700  39.0332050  16.0414170
  59.5108860  39.7325790  14.9736460  60.5969170  37.9110280  13.1003430
  60.0665630  37.4201230  12.4726770  61.2657240  38.3394480  12.5661360
  69.4947230  42.3779740  12.8644620  69.9088250  42.5324820  13.7135040
  68.5598230  42.5034960  13.0270400  69.9669400  39.7175900  14.8683770
  70.5490170  38.9628220  14.7804250  70.1431170  40.2483340  14.0915250
  61.0841470  34.8772650  13.1800720  60.9898340  34.2593400  12.4551590
  60.5038860  35.6038940  12.9530630  63.8502910  33.4345890  10.2128110
  63.4020210  33.4570150   9.3673660  63.2168110  33.0364910  10.8098410
  64.2562460  42.3300220  10.8340550  64.6750570  43.1732950  10.6616790
  63.3371090  42.4672260  10.6047330  66.5926360  40.0616400  12.2178390
  66.7122570  39.4657540  12.9573230  67.4520360  40.0986090  11.7979690
  68.9314260  40.6153590  10.7940900  68.4049480  41.1396210  10.1906040
  69.2745600  41.2480980  11.4250630  62.1069880  48.6353230  11.9498280
  61.5690970  49.3599290  11.6306980  62.3603840  48.1583570  11.1595620
  63.3595130  36.6037750  13.4754210  63.9494820  36.2953600  14.1632030
  62.5415370  36.1317500  13.6314110  68.1788560  36.2203560  13.7087230
  67.4904080  35.5585100  13.6437220  68.8994580  35.7741830  14.1535690
  64.9632090  49.8704440  12.2084930  64.8890790  50.7739580  12.5157300
  64.0610930  49.5516340  12.1807000  56.3659380  47.1979030   5.5118550
  56.6962390  46.3300090   5.2797190  56.7950380  47.4037550   6.3423510
  60.9621300  45.5288040   3.1720520  60.6616840  45.4053010   4.0724430
  60.8558790  44.6696630   2.7636250  56.8549590  48.0649620   8.2500180
  56.4180580  48.2450420   9.0824330  57.4227270  48.8224240   8.1081900
  72.4911770  47.5666620  12.5377490  71.8913760  47.6259180  11.7941410
  72.6205670  46.6271600  12.6674340  56.6874020  40.5769850   4.6089060
  56.0322860  40.3081490   3.9648760  57.5251970  40.4674330   4.1591040
  74.1929650  42.9082020   5.2223330  74.5638480  42.1249340   4.8159300
  74.8331580  43.5971120   5.0440630  71.1763410  44.2918600  10.6353650
  70.3623250  44.7215760  10.8979440  71.5837610  44.9037010  10.0222700
  73.1354190  40.2835280   2.5283350  72.7597790  39.5163210   2.0964640
  72.4057310  40.6657980   3.0158280  57.7249950  40.9622420   9.1492400
  58.0922990  40.8749820  10.0288420  57.1560770  40.1988970   9.0499260
  72.5253810  39.4306800  12.1622870  72.2939900  39.2019550  11.2620820
  72.7858360  40.3506350  12.1167760  57.2765950  37.8731510  13.0550820
  56.3822000  37.8398270  13.3944530  57.8163500  38.0718300  13.8202070
  70.9641880  34.6563230  14.9402570  71.8412060  34.6646630  15.3236570
  70.9762720  33.9194070  14.3294920  72.4105150  38.5092770   5.8290590
  72.9342630  38.0155420   5.1980760  72.9964570  38.6443130   6.5738160
  72.5894870  38.5932640   9.3510140  71.6397580  38.5596180   9.4655130
  72.7707880  39.5032750   9.1159910  71.9005120  37.7666120   1.7683000
  72.3964240  37.5336990   2.5531880  71.7021190  36.9277960   1.3520640
  57.7805660  32.1479840   7.4034040  58.4281850  31.5977220   6.9629200
  58.2007500  32.4022990   8.2249850  73.3292280  36.4027070   4.3020680
  73.2191560  36.2483110   5.2402950  74.0899870  35.8748010   4.0596090
  71.6758000  32.3421200  10.7603680  72.3130220  32.9555340  11.1262870
  71.8232890  32.3781860   9.8152910  71.2339460  49.0437200   4.1621920
  71.8298530  48.7221770   3.4856340  71.4917610  48.5709020   4.9535190
  57.5337660  32.3035510  10.1459360  57.1852480  32.7599330  10.9117540
  57.2025360  31.4092640  10.2281790  59.1402030  45.4755110  14.3112550
  59.0971660  45.1048020  15.1927010  59.2713040  46.4132680  14.4514370
  62.8408060  47.0314700   9.9122270  62.5999420  47.2989260   9.0252790
  63.7810700  47.2020430   9.9673130  65.0462480  33.4947390  13.6678780
  64.9851370  34.0869220  14.4174190  65.9862860  33.3873350  13.5229040
  67.6837040  33.1517450  13.3071070  68.2977450  33.4696740  12.6452150
  68.2286600  32.6666040  13.9266930  74.1012220  49.0509080  10.7132910
  73.6070500  49.4477950   9.9960040  73.4925510  48.4258290  11.1070190
  58.2058300  31.8311710  13.4210130  58.7541290  31.6499760  12.6576240
  58.2713610  31.0405820  13.9566440  58.9790060  48.4217360  11.4310330
  58.3850380  48.2902060  12.1700370  58.9713900  47.5855500  10.9652430
  68.4245080  31.7149590   9.6340360  67.5504920  32.0484700   9.4313290
  68.3155830  31.2422770  10.4592230  69.3317060  33.9220460  11.0182080
  69.0030420  33.1072220  10.6383810  70.2799360  33.8790270  10.8947770
  71.7851670  49.6932500   7.9919650  71.3254640  50.4448310   7.6177670
  71.1564130  48.9738970   7.9334450  58.6102290  45.7875740  10.3818370
  57.8836350  45.1681030  10.3144320  58.6711440  46.1816350   9.5116450
  62.2147390  48.0020740   7.1667780  62.7312410  47.3908100   6.6416040
  62.8644770  48.5049520   7.6578790  64.9542890  48.8929230   7.9936760
  65.2420700  48.6383530   7.1169770  65.4666110  48.3406590   8.5842330
  66.1719900  32.6319430   8.5733270  65.3891690  33.1064930   8.8530030
  65.8782830  31.7274260   8.4646450  70.7240970  33.3342530   6.6182360
  71.1649060  33.2787630   5.7703960  70.4548560  34.2500540   6.6892540
  72.5879540  32.9657770   4.6291180  72.5267940  32.0218990   4.4822200
  73.3671570  33.0737860   5.1744640  56.8932290  49.1050130   3.5915130
  56.7254330  48.4720810   4.2897020  56.0266800  49.3109530   3.2409320
  64.0574120  35.0506180   4.0849300  63.2448630  34.6763070   3.7445180
  64.5615760  34.2951260   4.3870490  68.5599100  31.7148630   5.3232370
  69.1628470  32.2868840   5.7980890  67.8192090  32.2788070   5.1006270
  62.0823300  33.2006100   2.6894350  61.4526040  32.4993410   2.8564480
  61.5428440  33.9610230   2.4727510  65.0215250  49.8145330  15.3604960
  65.9482560  49.5789600  15.4040920  65.0065680  50.6417330  14.8790990
  73.2560310  49.3570900   2.3579210  73.4312500  48.6708640   1.7140130
  72.5581880  49.8817950   1.9655880  62.2078860  32.4790080  15.1246840
  61.9263130  32.9823680  14.3607660  62.5898560  31.6811830  14.7588970
  68.8094320  31.8943660  15.7027310  68.6959770  32.2138270  16.5978830
  69.6264060  32.2956170  15.4064590  71.5892810  49.0415190  15.1846000
  72.3818130  48.5464420  14.9771960  71.8825960  49.7205330  15.7921610
  67.7152470  21.1392640  61.1636010  67.6346520  20.2247250  60.8927720
  67.3016890  21.6359710  60.4575720  65.8470510  22.9171660  63.0445280
  65.0712610  22.4372100  63.3343850  66.4983440  22.2377310  62.8701440
  59.8636340  23.2291470  63.9221040  59.0321220  22.9740180  64.3217550
  60.4717320  23.3002240  64.6578960  69.8677940  27.3231850  61.8244410
  69.4059470  26.5519090  62.1531580  70.6803490  27.3497920  62.3296860
  59.8437600  27.2631560  64.1179060  60.1465640  26.3729300  63.9389280
  60.5881190  27.8201780  63.8901310  58.2728290  18.1893360  57.7063430
  57.3844990  18.5309330  57.6043310  58.5569480  17.9893680  56.8144260
  56.2361300  20.7899010  63.5903130  56.8077410  20.0221210  63.5906770
  56.2362840  21.0887770  62.6809740  66.0941250  29.6089860  61.4448400
  65.4752690  30.0647360  60.8742840  66.9493030  29.7641320  61.0438100
  65.2879500  25.5928850  63.0515440  65.2187780  24.6518790  62.8904570
  66.0499360  25.6830260  63.6238010  57.4786170  16.1983370  65.3772060
  57.2989010  15.3009120  65.6574820  57.0766250  16.7455240  66.0519010
  66.3184670  18.3999230  63.2784370  66.6949490  17.5271110  63.1658040
  66.2204180  18.7357930  62.3874810  60.4489680  16.7724860  58.7401810
  60.5556430  17.6728590  59.0470570  59.5382040  16.7242830  58.4496460
  70.1008790  15.8949670  60.2112710  70.9218410  15.4046240  60.2538190
  70.1342870  16.4847330  60.9644550  58.0972840  18.6943870  63.9854400
  58.7782950  18.9582240  64.6041800  57.7820890  17.8544740  64.3192410
  62.2897410  19.7411230  63.0726990  62.7975630  20.2392200  63.7132010
  62.8210650  18.9646430  62.8966350  74.3908340  17.9116420  66.7756340
  73.6860510  18.2998130  66.2571450  74.6566260  18.6066710  67.3777270
  60.5733510  14.3809790  67.3390410  60.5751950  14.8982180  66.5336310
  59.7437820  13.9039970  67.3160340  66.9604600  24.4929100  58.8380310
  66.3421870  24.9578550  58.2743030  67.4727850  25.1856580  59.2549820
  61.8236360  24.0204970  65.5163910  61.4905740  24.6473890  66.1584980
  62.0003040  24.5466850  64.7365580  70.3370270  17.8350050  62.9840250
  69.6325840  18.1234940  63.5643360  70.6982430  18.6450160  62.6239810
  60.2548840  16.0919750  65.3460860  60.5965650  16.9361800  65.0514730
  59.3164650  16.2403490  65.4626200  61.0355460  25.9885770  67.3313090
  61.6529460  26.6636850  67.0497540  60.1748580  26.3973750  67.2400590
  56.3287800  25.1785630  56.2119940  55.9515780  25.6672730  55.4804840
  56.5860870  25.8510910  56.8426470  71.9533050  27.4525180  65.2467730
  71.2696570  28.1224290  65.2384400  72.4927340  27.6505830  64.4812590
  73.4057190  17.2804840  63.3749460  72.4582100  17.3143820  63.5064890
  73.7307180  18.0943790  63.7598820  63.9376730  13.5802020  61.6705450
  64.2451710  13.0248910  60.9540950  63.0077430  13.7146480  61.4878440
  69.4891790  29.2969310  63.9612910  69.5018950  28.8931600  63.0935170
  68.9367010  30.0716600  63.8574340  70.7837210  26.0185530  59.0503080
  70.6733540  25.0759860  59.1752500  70.7805460  26.3801170  59.9365840
  68.8877230  24.1999150  65.2895520  69.3046020  23.9859260  64.4548980
  69.6117050  24.4571940  65.8604140  66.3257490  21.6450850  58.4065570
  65.3986770  21.5788230  58.6354040  66.4782310  22.5830980  58.2920810
  66.3126570  17.9167850  55.4032730  65.3730240  18.0781810  55.4885190
  66.6309830  18.6353530  54.8568720  72.8339330  22.5986370  65.3811760
  72.0057960  22.6679460  64.9061890  73.4289810  23.1840680  64.9127590
  70.3554780  23.2071150  58.9100820  69.7367200  22.8690700  58.2627120
  70.3379230  22.5630910  59.6180010  69.7981340  19.3855690  66.3266630
  69.3852520  20.2109400  66.5806620  69.0657290  18.8000730  66.1342990
  61.9314130  22.1715590  61.1885300  61.5271130  21.4592840  60.6931200
  62.0177250  21.8268830  62.0773340  62.3995830  25.8583150  63.3524510
  62.1024120  25.2528620  62.6732290  63.3495650  25.8960460  63.2413870
  60.6442750  18.9458800  64.9684340  61.1957340  19.0554140  64.1937590
  61.1586260  19.3196400  65.6839570  70.4881440  29.4315020  67.0147610
  70.0112000  30.2387210  66.8220220  69.8043230  28.7793350  67.1673820
  68.5319480  22.4457960  55.9173570  68.9712760  21.6080390  55.7711390
  69.2447900  23.0787360  56.0037710  66.6414860  27.3854030  59.8854810
  67.0810770  28.1278360  59.4710200  66.5801750  27.6280600  60.8093770
  72.1136620  13.7000770  54.2314610  71.8009280  13.7927600  55.1313680
  72.8749090  14.2781800  54.1812040  58.6318760  21.0660570  58.6891950
  58.5116360  21.7922660  58.0773220  58.3219650  20.2963480  58.2119860
  56.2704130  24.2375710  64.4960590  56.3484550  24.3724480  63.5516310
  56.8845810  23.5291600  64.6888710  57.5151760  25.9375900  60.9066770
  57.1079840  26.0790490  60.0520370  58.4064770  25.6536060  60.7037980
  69.3085040  30.3723150  57.2417820  69.1486180  30.0826090  58.1399650
  69.1431750  29.5963280  56.7063050  61.7873420  30.1521680  59.0189440
  61.6115900  29.2357220  58.8057240  60.9329160  30.5108970  59.2587240
  69.0111170  27.8810710  55.8015820  68.3176330  27.8788000  55.1418100
  69.7534030  27.4570030  55.3709990  68.5761100  29.5073420  59.8764310
  69.0318050  28.7262800  60.1902930  68.9153620  30.2180240  60.4205490
  56.3263650  25.2789880  67.0355050  56.4894690  24.8095240  66.2174420
  56.7916100  24.7713440  67.7003890  61.0982420  14.4095640  62.0715620
  60.6550570  15.1905180  61.7400140  61.6567410  14.7325530  62.7786560
  64.2141240  14.0306340  56.9521450  63.5895420  14.0266210  57.6774760
  64.1271360  13.1637300  56.5557420  63.1358320  14.9542970  63.9305220
  63.4330650  15.8605800  63.8497240  63.6843880  14.4661750  63.3164790
  60.8896640  19.5329210  59.7996870  60.6637560  19.3166380  60.7043490
  60.1089170  19.9657670  59.4542840  68.1194400  19.5392580  58.3987520
  67.5203290  20.2628380  58.2151140  68.6674010  19.4769360  57.6163970
  66.7259270  18.1756120  60.4290800  67.1188840  18.4928320  59.6159490
  67.0876120  17.2968000  60.5435320  55.7623440  14.7656920  62.6521000
  55.4736490  15.3359780  63.3645980  56.5069200  14.2861370  63.0152230
  55.9493670  18.7077040  53.8623720  55.8668340  19.6507800  54.0038710
  55.5976730  18.5651950  52.9836070  67.3114410  20.7661870  64.5241580
  66.5795530  21.2748680  64.8731680  66.9138750  19.9491850  64.2230360
  63.7491800  17.4416070  62.9294070  63.7527860  17.0006020  62.0798610
  64.6442920  17.7633400  63.0365890  59.5994180  17.3242560  61.8888280
  59.2594230  17.8017790  62.6455330  58.8371500  16.8707680  61.5289380
  63.8111950  18.4428150  55.9200830  63.9324770  18.4014630  56.8686650
  63.4260460  19.3052300  55.7647560  67.7740320  16.2195550  63.9364520
  67.7913060  16.6704200  64.7806370  67.5255900  15.3201190  64.1497960
  62.8233450  20.7529290  55.3184130  62.2550350  20.3047540  54.6920040
  63.5322450  21.1122070  54.7849280  64.0499770  21.5017850  64.6759480
  64.4169900  21.0276420  65.4220820  63.8604830  22.3759420  65.0167820
  56.9140260  16.2461540  60.8052950  56.6287180  15.8817210  61.6431570
  56.8519120  15.5142000  60.1916090  61.8399140  20.5426490  66.9943690
  61.5356210  21.4218470  67.2194050  62.7945600  20.6026280  67.0301130
  60.3680930  24.7487480  57.5910540  59.5943190  24.2085100  57.4309260
  61.0975560  24.2294090  57.2528300  71.1268910  23.7452840  63.3836930
  71.8468030  24.2408130  62.9933040  70.9250730  23.0670730  62.7390800
  66.5878850  15.1390800  57.5266320  65.7743460  14.6403970  57.4511630
  66.3940800  15.9789050  57.1102670  69.3027240  19.5110450  55.8228480
  70.1906860  19.8227680  55.6479820  69.2732330  18.6382700  55.4309060
  60.4118330  24.4167860  61.2289350  60.9297000  23.6136120  61.1746240
  59.9602350  24.3547000  62.0706180  65.2987830  25.6834140  56.5016650
  65.6403530  26.4276370  56.0059970  64.4700540  25.9965260  56.8641480
  71.5741510  20.8222290  55.2908340  71.4905230  21.2536510  54.4404780
  72.2935700  21.2820640  55.7235160  72.6028760  27.6764550  58.0190470
  71.9604920  27.0220170  58.2934190  72.2159420  28.0819640  57.2431140
  68.1815240  25.0049980  61.8662160  68.5339060  24.4078110  61.2063530
  67.2977570  24.6794210  62.0370410  64.2678520  25.7647670  59.2732570
  64.9549650  26.3116880  59.6540160  63.4810940  26.3088400  59.3082180
  56.4070920  21.3820490  54.7649650  57.2765770  21.6645290  55.0485570
  55.9161240  22.1956360  54.6498460  63.5705730  22.7693700  58.8857930
  64.0268510  23.5798950  59.1118120  63.2193940  22.4516840  59.7176420
  65.8738340  28.2800040  66.1150230  66.5180560  28.4859420  66.7923650
  66.2367780  27.5188440  65.6621080  59.4717510  13.1131350  59.3580450
  59.3432140  13.1049250  60.3065370  58.6479530  13.4514440  59.0071460
  67.1470420  26.2832390  64.8327680  67.7892650  25.5825550  64.9459850
  67.6719770  27.0630830  64.6524570  70.9926140  26.5681010  54.5566820
  70.7663720  25.8511450  55.1491460  70.6022340  26.3193450  53.7188570
  56.7742170  30.5947870  55.3311280  57.1339810  31.1937210  54.6768550
  56.6334510  31.1407760  56.1046310  70.5742390  24.4852950  56.2180980
  70.2864090  24.9465640  57.0058860  71.3694560  24.0250720  56.4865200
  62.7910790  27.9779070  56.1484950  62.7820890  28.7108760  55.5329460
  61.8709150  27.7310650  56.2411910  58.3917430  23.1993960  56.8931710
  57.7845380  23.9392860  56.9027010  58.8666780  23.2893320  56.0669910
  67.9650220  17.3644780  66.5688600  68.3331040  16.5439990  66.8968170
  67.1048420  17.4246670  66.9844250  71.3312250  16.3201720  57.3776160
  70.7025410  16.4247390  56.6634390  70.8364170  16.5398500  58.1670040
  65.7770390  28.0407310  54.8110140  65.8782370  27.8371300  53.8812120
  64.8772130  27.7865590  55.0157920  63.2996280  18.5987670  58.7934040
  62.5912430  19.0674010  59.2347650  63.5840760  17.9409680  59.4279230
  64.9252210  20.0184370  66.7926570  65.4237460  20.4930190  67.4578420
  65.0675160  19.0947890  66.9996600  67.3311710  15.3238330  60.2329830
  67.2079490  15.3424460  59.2839340  68.2796270  15.3717270  60.3528230
  64.4188500  30.5593630  59.5057810  64.6730000  30.5215020  58.5837180
  63.4700980  30.4326960  59.4986060  61.5031300  16.9072750  56.1684750
  62.3521830  17.3442900  56.1024940  61.1362570  17.2193010  56.9956810
  70.4241080  21.4785510  61.0816320  69.4831220  21.4935740  61.2564010
  70.7385150  20.6921470  61.5276620  60.4022720  23.1605110  54.6420280
  61.1685990  23.0486470  55.2045710  60.4797410  22.4643080  53.9897050
  59.0969480  20.5930180  55.3253170  59.1773070  19.6457690  55.4370570
  59.9889230  20.9237060  55.4313830  72.4266660  28.6494360  62.7570580
  72.5514080  29.4725530  63.2294390  73.2932220  28.4385090  62.4094730
  59.8984190  30.7425570  62.4287710  60.6346670  30.1941030  62.6996280
  60.2825110  31.6081580  62.2893700  56.7829670  26.8099140  58.3029220
  55.8569450  27.0520280  58.2934630  57.2486100  27.6373400  58.1813970
  63.0086500  29.9155880  54.2513280  63.8015110  30.2044710  53.7995070
  62.4890850  29.4848050  53.5725760  72.0616670  29.1426010  55.6750020
  71.7758180  28.7291150  54.8604200  71.8636220  30.0713720  55.5550540
  63.5263900  25.1359290  54.1155630  63.4214540  24.5211640  54.8417010
  63.3588120  24.6125180  53.3318640  66.7666630  24.1979320  54.7197620
  66.2176730  24.6448620  55.3640360  67.3885890  23.6928570  55.2435290
  62.4341750  23.1570240  56.6162920  62.8558170  22.9910110  57.4594310
  62.5592590  22.3470470  56.1218060  64.9469390  22.1807850  53.8640020
  65.4675050  21.4656870  53.4981170  65.5937790  22.8193720  54.1640530
  63.8502910  14.6602400  66.5358580  63.4020210  14.6826660  65.6904130
  63.2168110  14.2621420  67.1328880  64.2562460  23.5556730  67.1571020
  64.6750570  24.3989460  66.9847260  63.3371090  23.6928770  66.9277800
  68.9314260  21.8410100  67.1171370  68.4049480  22.3652720  66.5136510
  69.2745600  22.4737490  67.7481100  61.3300650  19.2303470  53.5621080
  61.1289710  18.3670830  53.9234420  61.1592700  19.1436830  52.6242680
  68.8088960  14.0411700  56.0907960  69.0891250  13.1979600  56.4467380
  68.0354690  14.2734810  56.6046710  60.1283450  16.3304090  53.5498960
  60.4309350  16.3371520  52.6418110  60.8678040  15.9801950  54.0466620
  63.3468380  15.2738710  54.5355160  62.9990380  14.5962700  53.9557610
  63.5481150  14.8128220  55.3498550  65.5117420  30.2619460  56.1541760
  66.4068210  30.6004430  56.1760520  65.5435050  29.5398870  55.5266040
  59.1513580  25.6346510  54.3828760  59.5888450  26.1776180  55.0386340
  59.6361310  24.8093460  54.3925100  56.3659380  28.4235540  61.8349020
  56.6962390  27.5556600  61.6027660  56.7950380  28.6294060  62.6653980
  60.9621300  26.7544550  59.4950990  60.6616840  26.6309520  60.3954900
  60.8558790  25.8953140  59.0866720  56.8549590  29.2906130  64.5730650
  56.4180580  29.4706930  65.4054800  57.4227270  30.0480750  64.4312370
  73.7313220  26.5340950  54.1977670  72.9006180  26.6017600  54.6684900
  73.9085050  27.4245070  53.8944530  73.1869680  23.2788430  56.7011870
  73.9488590  23.8485080  56.8071560  73.2024050  22.7115630  57.4720180
  56.6874020  21.8026360  60.9319530  56.0322860  21.5338000  60.2879230
  57.5251970  21.6930840  60.4821510  74.1929650  24.1338530  61.5453800
  74.5638480  23.3505850  61.1389770  74.8331580  24.8227630  61.3671100
  71.1763410  25.5175110  66.9584120  70.3623250  25.9472270  67.2209910
  71.5837610  26.1293520  66.3453170  73.2388850  23.5722800  53.8584390
  73.5137690  24.4801680  53.7303610  73.0499590  23.5085330  54.7946380
  69.6364460  16.5967650  55.1538020  70.0549340  16.4098630  54.3134680
  69.3300520  15.7446700  55.4640950  73.1354190  21.5091790  58.8513820
  72.7597790  20.7419720  58.4195110  72.4057310  21.8914490  59.3388750
  57.7249950  22.1878930  65.4722870  58.0922990  22.1006330  66.3518890
  57.1560770  21.4245480  65.3729730  55.9012100  19.0125290  56.8744860
  54.9976180  19.2755490  56.6996520  56.3852720  19.2836460  56.0944820
  72.4105150  19.7349280  62.1521060  72.9342630  19.2411930  61.5211230
  72.9964570  19.8699640  62.8968630  72.5894870  19.8189150  65.6740610
  71.6397580  19.7852690  65.7885600  72.7707880  20.7289260  65.4390380
  58.4439310  18.0690830  54.7839240  59.1531010  17.6474050  54.2986520
  57.7279250  18.1366060  54.1522590  58.0913470  14.1230160  53.8241890
  58.8141600  14.6639100  54.1423110  58.3637990  13.8493580  52.9483430
  71.9005120  18.9922630  58.0913470  72.3964240  18.7593500  58.8762350
  71.7021190  18.1534470  57.6751110  57.7805660  13.3736350  63.7264510
  58.4281850  12.8233730  63.2859670  58.2007500  13.6279500  64.5480320
  73.3292280  17.6283580  60.6251150  73.2191560  17.4739620  61.5633420
  74.0899870  17.1004520  60.3826560  71.6758000  13.5677710  67.0834150
  72.3130220  14.1811850  67.4493340  71.8232890  13.6038370  66.1383380
  74.2182550  15.4591500  53.8657290  75.1431860  15.3272680  53.6575580
  74.1958340  15.5384320  54.8193740  74.2921040  16.2302160  56.4914000
  73.4972540  16.1647280  57.0206910  74.4964320  17.1652800  56.4799350
  71.2339460  30.2693710  60.4852390  71.8298530  29.9478280  59.8086810
  71.4917610  29.7965530  61.2765660  57.5337660  13.5292020  66.4689830
  57.1852480  13.9855840  67.2348010  57.2025360  12.6349150  66.5512260
  62.8408060  28.2571210  66.2352740  62.5999420  28.5245770  65.3483260
  63.7810700  28.4276940  66.2903600  74.1012220  30.2765590  67.0363380
  73.6070500  30.6734460  66.3190510  73.4925510  29.6514800  67.4300660
  68.4245080  12.9406100  65.9570830  67.5504920  13.2741210  65.7543760
  68.3155830  12.4679280  66.7822700  69.3317060  15.1476970  67.3412550
  69.0030420  14.3328730  66.9614280  70.2799360  15.1046780  67.2178240
  71.7851670  30.9189010  64.3150120  71.3254640  31.6704820  63.9408140
  71.1564130  30.1995480  64.2564920  58.6102290  27.0132250  66.7048840
  57.8836350  26.3937540  66.6374790  58.6711440  27.4072860  65.8346920
  62.2147390  29.2277250  63.4898250  62.7312410  28.6164610  62.9646510
  62.8644770  29.7306030  63.9809260  64.9542890  30.1185740  64.3167230
  65.2420700  29.8640040  63.4400240  65.4666110  29.5663100  64.9072800
  66.1719900  13.8575940  64.8963740  65.3891690  14.3321440  65.1760500
  65.8782830  12.9530770  64.7876920  70.7240970  14.5599040  62.9412830
  71.1649060  14.5044140  62.0934430  70.4548560  15.4757050  63.0123010
  72.5879540  14.1914280  60.9521650  72.5267940  13.2475500  60.8052670
  73.3671570  14.2994370  61.4975110  56.8932290  30.3306640  59.9145600
  56.7254330  29.6977320  60.6127490  56.0266800  30.5366040  59.5639790
  57.5160310  14.1623420  57.4177460  58.2739670  14.2752300  56.8441490
  57.0537480  14.9992620  57.3720890  64.0574120  16.2762690  60.4079770
  63.2448630  15.9019580  60.0675650  64.5615760  15.5207770  60.7100960
  68.5599100  12.9405140  61.6462840  69.1628470  13.5125350  62.1211360
  67.8192090  13.5044580  61.4236740  71.7033700  13.3426700  56.9203120
  71.8984330  14.2410150  57.1870550  70.9163570  13.1113780  57.4136070
  58.4994990  29.0239870  57.3595740  57.9742610  29.4047900  56.6557700
  58.4239570  29.6490640  58.0805450  59.8885460  14.6887470  55.9579430
  60.4178220  13.9017270  55.8287380  60.5213780  15.3678660  56.1914960
  62.0823300  14.4262610  59.0124820  61.4526040  13.7249920  59.1794950
  61.5428440  15.1866740  58.7957980  73.2560310  30.5827410  58.6809680
  73.4312500  29.8965150  58.0370600  72.5581880  31.1074460  58.2886350
  61.0987960  30.9722250  56.2344990  61.8306780  30.6881530  55.6868880
  61.3581630  30.7335530  57.1244370  60.2602750  27.0886980  56.2391320
  59.6311630  27.5572080  56.7877150  60.3750580  26.2436200  56.6737510
  67.7152470  21.1392640  42.3892520  67.6346520  20.2247250  42.1184230
  67.3016890  21.6359710  41.6832230  65.8470510  22.9171660  44.2701790
  65.0712610  22.4372100  44.5600360  66.4983440  22.2377310  44.0957950
  59.8636340  23.2291470  45.1477550  59.0321220  22.9740180  45.5474060
  60.4717320  23.3002240  45.8835470  69.8677940  27.3231850  43.0500920
  69.4059470  26.5519090  43.3788090  70.6803490  27.3497920  43.5553370
  59.8437600  27.2631560  45.3435570  60.1465640  26.3729300  45.1645790
  60.5881190  27.8201780  45.1157820  58.2728290  18.1893360  38.9319940
  57.3844990  18.5309330  38.8299820  58.5569480  17.9893680  38.0400770
  56.2361300  20.7899010  44.8159640  56.8077410  20.0221210  44.8163280
  56.2362840  21.0887770  43.9066250  66.0941250  29.6089860  42.6704910
  65.4752690  30.0647360  42.0999350  66.9493030  29.7641320  42.2694610
  65.2879500  25.5928850  44.2771950  65.2187780  24.6518790  44.1161080
  66.0499360  25.6830260  44.8494520  57.4786170  16.1983370  46.6028570
  57.2989010  15.3009120  46.8831330  57.0766250  16.7455240  47.2775520
  66.3184670  18.3999230  44.5040880  66.6949490  17.5271110  44.3914550
  66.2204180  18.7357930  43.6131320  60.4489680  16.7724860  39.9658320
  60.5556430  17.6728590  40.2727080  59.5382040  16.7242830  39.6752970
  70.1008790  15.8949670  41.4369220  70.9218410  15.4046240  41.4794700
  70.1342870  16.4847330  42.1901060  58.0972840  18.6943870  45.2110910
  58.7782950  18.9582240  45.8298310  57.7820890  17.8544740  45.5448920
  62.2897410  19.7411230  44.2983500  62.7975630  20.2392200  44.9388520
  62.8210650  18.9646430  44.1222860  74.3908340  17.9116420  48.0012850
  73.6860510  18.2998130  47.4827960  74.6566260  18.6066710  48.6033780
  60.5733510  14.3809790  48.5646920  60.5751950  14.8982180  47.7592820
  59.7437820  13.9039970  48.5416850  66.9604600  24.4929100  40.0636820
  66.3421870  24.9578550  39.4999540  67.4727850  25.1856580  40.4806330
  61.8236360  24.0204970  46.7420420  61.4905740  24.6473890  47.3841490
  62.0003040  24.5466850  45.9622090  70.3370270  17.8350050  44.2096760
  69.6325840  18.1234940  44.7899870  70.6982430  18.6450160  43.8496320
  60.2548840  16.0919750  46.5717370  60.5965650  16.9361800  46.2771240
  59.3164650  16.2403490  46.6882710  61.0355460  25.9885770  48.5569600
  61.6529460  26.6636850  48.2754050  60.1748580  26.3973750  48.4657100
  56.3287800  25.1785630  37.4376450  55.9515780  25.6672730  36.7061350
  56.5860870  25.8510910  38.0682980  71.9533050  27.4525180  46.4724240
  71.2696570  28.1224290  46.4640910  72.4927340  27.6505830  45.7069100
  73.4057190  17.2804840  44.6005970  72.4582100  17.3143820  44.7321400
  73.7307180  18.0943790  44.9855330  63.9376730  13.5802020  42.8961960
  64.2451710  13.0248910  42.1797460  63.0077430  13.7146480  42.7134950
  69.4891790  29.2969310  45.1869420  69.5018950  28.8931600  44.3191680
  68.9367010  30.0716600  45.0830850  70.7837210  26.0185530  40.2759590
  70.6733540  25.0759860  40.4009010  70.7805460  26.3801170  41.1622350
  68.8877230  24.1999150  46.5152030  69.3046020  23.9859260  45.6805490
  69.6117050  24.4571940  47.0860650  66.3257490  21.6450850  39.6322080
  65.3986770  21.5788230  39.8610550  66.4782310  22.5830980  39.5177320
  66.3126570  17.9167850  36.6289240  65.3730240  18.0781810  36.7141700
  66.6309830  18.6353530  36.0825230  72.8339330  22.5986370  46.6068270
  72.0057960  22.6679460  46.1318400  73.4289810  23.1840680  46.1384100
  70.3554780  23.2071150  40.1357330  69.7367200  22.8690700  39.4883630
  70.3379230  22.5630910  40.8436520  69.7981340  19.3855690  47.5523140
  69.3852520  20.2109400  47.8063130  69.0657290  18.8000730  47.3599500
  61.9314130  22.1715590  42.4141810  61.5271130  21.4592840  41.9187710
  62.0177250  21.8268830  43.3029850  62.3995830  25.8583150  44.5781020
  62.1024120  25.2528620  43.8988800  63.3495650  25.8960460  44.4670380
  60.6442750  18.9458800  46.1940850  61.1957340  19.0554140  45.4194100
  61.1586260  19.3196400  46.9096080  70.4881440  29.4315020  48.2404120
  70.0112000  30.2387210  48.0476730  69.8043230  28.7793350  48.3930330
  61.4914260  25.5964840  51.2288820  60.5942790  25.8204810  51.4762220
  61.5167130  25.7199780  50.2800220  68.5319480  22.4457960  37.1430080
  68.9712760  21.6080390  36.9967900  69.2447900  23.0787360  37.2294220
  60.3185480  22.4678160  49.8046190  60.1793250  23.3400960  50.1733590
  59.4366840  22.1250970  49.6594130  66.6414860  27.3854030  41.1111320
  67.0810770  28.1278360  40.6966710  66.5801750  27.6280600  42.0350280
  62.1165830  28.4099860  52.0131340  62.0881260  28.8142810  51.1459770
  61.9530800  27.4810220  51.8502940  72.1136620  13.7000770  35.4571120
  71.8009280  13.7927600  36.3570190  72.8749090  14.2781800  35.4068550
  58.6318760  21.0660570  39.9148460  58.5116360  21.7922660  39.3029730
  58.3219650  20.2963480  39.4376370  74.0680650  29.1926960  53.3095510
  74.5440370  29.6709850  53.9884590  74.6887810  29.1244450  52.5841010
  56.2704130  24.2375710  45.7217100  56.3484550  24.3724480  44.7772820
  56.8845810  23.5291600  45.9145220  57.5151760  25.9375900  42.1323280
  57.1079840  26.0790490  41.2776880  58.4064770  25.6536060  41.9294490
  73.4713900  26.3839810  50.4695520  73.5976960  26.1451690  49.5512700
  73.5135280  25.5524350  50.9417600  67.3330640  30.0867810  49.0390330
  67.8475310  29.9975820  49.8412760  66.4899720  30.4327510  49.3318240
  69.3085040  30.3723150  38.4674330  69.1486180  30.0826090  39.3656160
  69.1431750  29.5963280  37.9319560  61.7873420  30.1521680  40.2445950
  61.6115900  29.2357220  40.0313750  60.9329160  30.5108970  40.4843750
  69.0111170  27.8810710  37.0272330  68.3176330  27.8788000  36.3674610
  69.7534030  27.4570030  36.5966500  68.5761100  29.5073420  41.1020820
  69.0318050  28.7262800  41.4159440  68.9153620  30.2180240  41.6462000
  73.3237910  18.4372270  51.4345260  72.7082180  18.9451940  50.9060720
  73.0034330  17.5370600  51.3771200  56.3263650  25.2789880  48.2611560
  56.4894690  24.8095240  47.4430930  56.7916100  24.7713440  48.9260400
  61.0982420  14.4095640  43.2972130  60.6550570  15.1905180  42.9656650
  61.6567410  14.7325530  44.0043070  65.3852230  17.2764160  48.9007450
  64.9231600  17.4847180  49.7127390  64.9830340  16.4623510  48.5978120
  70.3856740  18.4973110  50.0304110  69.5350330  18.1978860  50.3513180
  70.2258530  18.7415120  49.1187930  67.4806450  19.9974860  52.1302900
  67.8059860  19.1638610  51.7905130  68.2686780  20.5203380  52.2781230
  64.2141240  14.0306340  38.1777960  63.5895420  14.0266210  38.9031270
  64.1271360  13.1637300  37.7813930  63.1358320  14.9542970  45.1561730
  63.4330650  15.8605800  45.0753750  63.6843880  14.4661750  44.5421300
  60.8896640  19.5329210  41.0253380  60.6637560  19.3166380  41.9300000
  60.1089170  19.9657670  40.6799350  68.1194400  19.5392580  39.6244030
  67.5203290  20.2628380  39.4407650  68.6674010  19.4769360  38.8420480
  63.3295850  20.4314790  51.6913650  63.2339450  19.4909520  51.5414050
  64.1727830  20.6529860  51.2961720  66.7259270  18.1756120  41.6547310
  67.1188840  18.4928320  40.8416000  67.0876120  17.2968000  41.7691830
  58.4606390  16.8428460  49.8447430  58.0669780  17.6903670  50.0520210
  57.7724790  16.2054830  50.0356070  65.0351440  16.9263430  52.9144170
  64.3449760  16.7335630  53.5490260  65.7783740  17.2098070  53.4468470
  55.7623440  14.7656920  43.8777510  55.4736490  15.3359780  44.5902490
  56.5069200  14.2861370  44.2408740  55.9493670  18.7077040  35.0880230
  55.8668340  19.6507800  35.2295220  55.5976730  18.5651950  34.2092580
  67.3114410  20.7661870  45.7498090  66.5795530  21.2748680  46.0988190
  66.9138750  19.9491850  45.4486870  63.7491800  17.4416070  44.1550580
  63.7527860  17.0006020  43.3055120  64.6442920  17.7633400  44.2622400
  59.5994180  17.3242560  43.1144790  59.2594230  17.8017790  43.8711840
  58.8371500  16.8707680  42.7545890  63.8111950  18.4428150  37.1457340
  63.9324770  18.4014630  38.0943160  63.4260460  19.3052300  36.9904070
  67.7740320  16.2195550  45.1621030  67.7913060  16.6704200  46.0062880
  67.5255900  15.3201190  45.3754470  62.8233450  20.7529290  36.5440640
  62.2550350  20.3047540  35.9176550  63.5322450  21.1122070  36.0105790
  71.2011070  13.6327730  51.0007410  71.5256840  12.9017390  51.5265390
  71.2367580  13.3141370  50.0988400  57.9002630  24.6541310  50.4207370
  57.5157420  24.0134980  51.0190330  58.2114820  25.3577430  50.9902100
  64.0499770  21.5017850  45.9015990  64.4169900  21.0276420  46.6477330
  63.8604830  22.3759420  46.2424330  56.9140260  16.2461540  42.0309460
  56.6287180  15.8817210  42.8688080  56.8519120  15.5142000  41.4172600
  61.8399140  20.5426490  48.2200200  61.5356210  21.4218470  48.4450560
  62.7945600  20.6026280  48.2557640  60.3680930  24.7487480  38.8167050
  59.5943190  24.2085100  38.6565770  61.0975560  24.2294090  38.4784810
  71.1268910  23.7452840  44.6093440  71.8468030  24.2408130  44.2189550
  70.9250730  23.0670730  43.9647310  66.5878850  15.1390800  38.7522830
  65.7743460  14.6403970  38.6768140  66.3940800  15.9789050  38.3359180
  66.5087710  23.8161900  50.4962440  66.4425020  22.8957570  50.2420030
  65.8792850  23.9137340  51.2107080  69.3027240  19.5110450  37.0484990
  70.1906860  19.8227680  36.8736330  69.2732330  18.6382700  36.6565570
  60.4118330  24.4167860  42.4545860  60.9297000  23.6136120  42.4002750
  59.9602350  24.3547000  43.2962690  65.2987830  25.6834140  37.7273160
  65.6403530  26.4276370  37.2316480  64.4700540  25.9965260  38.0897990
  57.8962870  21.3829230  49.3671560  57.5377810  22.0483080  49.9544900
  57.6017430  20.5512780  49.7384180  61.0975990  21.8413470  52.2511110
  60.7976130  21.9870650  51.3538930  61.8687230  21.2818760  52.1584500
  66.4404440  26.6382470  50.2466240  66.4548980  25.7063430  50.0285150
  65.7329540  26.7242230  50.8856010  71.5741510  20.8222290  36.5164850
  71.4905230  21.2536510  35.6661290  72.2935700  21.2820640  36.9491670
  72.6515650  23.2789810  49.5934820  71.9263840  23.8718590  49.3964210
  73.1791110  23.2713350  48.7948190  72.6028760  27.6764550  39.2446980
  71.9604920  27.0220170  39.5190700  72.2159420  28.0819640  38.4687650
  68.1815240  25.0049980  43.0918670  68.5339060  24.4078110  42.4320040
  67.2977570  24.6794210  43.2626920  64.2678520  25.7647670  40.4989080
  64.9549650  26.3116880  40.8796670  63.4810940  26.3088400  40.5338690
  56.4070920  21.3820490  35.9906160  57.2765770  21.6645290  36.2742080
  55.9161240  22.1956360  35.8754970  63.5705730  22.7693700  40.1114440
  64.0268510  23.5798950  40.3374630  63.2193940  22.4516840  40.9432930
  65.8738340  28.2800040  47.3406740  66.5180560  28.4859420  48.0180160
  66.2367780  27.5188440  46.8877590  59.4717510  13.1131350  40.5836960
  59.3432140  13.1049250  41.5321880  58.6479530  13.4514440  40.2327970
  67.1470420  26.2832390  46.0584190  67.7892650  25.5825550  46.1716360
  67.6719770  27.0630830  45.8781080  70.9926140  26.5681010  35.7823330
  70.7663720  25.8511450  36.3747970  70.6022340  26.3193450  34.9445080
  68.9208040  27.0827290  49.2620250  69.2564280  27.6693980  49.9398170
  68.0008380  26.9520000  49.4918040  56.7742170  30.5947870  36.5567790
  57.1339810  31.1937210  35.9025060  56.6334510  31.1407760  37.3302820
  56.4711440  14.8722470  50.0443660  55.7569960  15.0719390  50.6496270
  56.8906480  14.0962040  50.4158460  70.5742390  24.4852950  37.4437490
  70.2864090  24.9465640  38.2315370  71.3694560  24.0250720  37.7121710
  56.7584030  28.8602730  51.0310190  56.8675150  27.9197470  50.8905580
  56.1064590  29.1257480  50.3823920  64.7496620  27.1318620  52.4308310
  64.4293490  26.4127860  52.9754000  64.0754980  27.8073690  52.5044370
  62.7910790  27.9779070  37.3741460  62.7820890  28.7108760  36.7585970
  61.8709150  27.7310650  37.4668420  58.3917430  23.1993960  38.1188220
  57.7845380  23.9392860  38.1283520  58.8666780  23.2893320  37.2926420
  67.9650220  17.3644780  47.7945110  68.3331040  16.5439990  48.1224680
  67.1048420  17.4246670  48.2100760  71.3312250  16.3201720  38.6032670
  70.7025410  16.4247390  37.8890900  70.8364170  16.5398500  39.3926550
  65.7770390  28.0407310  36.0366650  65.8782370  27.8371300  35.1068630
  64.8772130  27.7865590  36.2414430  63.2996280  18.5987670  40.0190550
  62.5912430  19.0674010  40.4604160  63.5840760  17.9409680  40.6535740
  64.9252210  20.0184370  48.0183080  65.4237460  20.4930190  48.6834930
  65.0675160  19.0947890  48.2253110  67.3311710  15.3238330  41.4586340
  67.2079490  15.3424460  40.5095850  68.2796270  15.3717270  41.5784740
  64.4188500  30.5593630  40.7314320  64.6730000  30.5215020  39.8093690
  63.4700980  30.4326960  40.7242570  61.5031300  16.9072750  37.3941260
  62.3521830  17.3442900  37.3281450  61.1362570  17.2193010  38.2213320
  72.1319070  16.2352330  48.8611470  71.6292670  16.9757730  49.2005280
  72.9475730  16.6236330  48.5448260  70.4241080  21.4785510  42.3072830
  69.4831220  21.4935740  42.4820520  70.7385150  20.6921470  42.7533130
  60.4022720  23.1605110  35.8676790  61.1685990  23.0486470  36.4302220
  60.4797410  22.4643080  35.2153560  59.0969480  20.5930180  36.5509680
  59.1773070  19.6457690  36.6627080  59.9889230  20.9237060  36.6570340
  72.4266660  28.6494360  43.9827090  72.5514080  29.4725530  44.4550900
  73.2932220  28.4385090  43.6351240  59.8984190  30.7425570  43.6544220
  60.6346670  30.1941030  43.9252790  60.2825110  31.6081580  43.5150210
  56.7829670  26.8099140  39.5285730  55.8569450  27.0520280  39.5191140
  57.2486100  27.6373400  39.4070480  58.9042470  29.9271640  52.8429800
  59.7055200  30.2483690  53.2565200  58.3894290  29.5667220  53.5649710
  63.0086500  29.9155880  35.4769790  63.8015110  30.2044710  35.0251580
  62.4890850  29.4848050  34.7982270  67.7407100  26.0351510  52.7905210
  67.1345260  26.0583110  52.0500960  67.4361210  25.3034550  53.3272460
  69.1707470  29.7631800  51.4014620  70.1229220  29.6789820  51.3514860
  69.0235690  30.4273510  52.0748410  72.0616670  29.1426010  36.9006530
  71.7758180  28.7291150  36.0860710  71.8636220  30.0713720  36.7807050
  56.6240280  22.4145100  51.7865850  57.1279300  21.8352380  52.3582080
  55.8847700  22.6985330  52.3242220  63.5263900  25.1359290  35.3412140
  63.4214540  24.5211640  36.0673520  63.3588120  24.6125180  34.5575150
  63.6778220  23.8216090  51.3201370  62.9123890  24.3901090  51.2356040
  63.8594180  23.5292300  50.4269600  66.7666630  24.1979320  35.9454130
  66.2176730  24.6448620  36.5896870  67.3885890  23.6928570  36.4691800
  70.8201570  25.5521420  51.8776390  71.5611040  25.8897180  51.3743850
  70.0574250  25.7213480  51.3246160  58.6563360  20.5574690  52.6815920
  58.6968700  20.2588560  53.5901150  59.5108860  20.9582300  52.5223440
  62.4341750  23.1570240  37.8419430  62.8558170  22.9910110  38.6850820
  62.5592590  22.3470470  37.3474570  60.5969170  19.1366790  50.6490410
  60.0665630  18.6457740  50.0213750  61.2657240  19.5650990  50.1148340
  64.9469390  22.1807850  35.0896530  65.4675050  21.4656870  34.7237680
  65.5937790  22.8193720  35.3897040  69.4947230  23.6036250  50.4131600
  69.9088250  23.7581330  51.2622020  68.5598230  23.7291470  50.5757380
  69.9669400  20.9432410  52.4170750  70.5490170  20.1884730  52.3291230
  70.1431170  21.4739850  51.6402230  61.0841470  16.1029160  50.7287700
  60.9898340  15.4849910  50.0038570  60.5038860  16.8295450  50.5017610
  63.8502910  14.6602400  47.7615090  63.4020210  14.6826660  46.9160640
  63.2168110  14.2621420  48.3585390  64.2562460  23.5556730  48.3827530
  64.6750570  24.3989460  48.2103770  63.3371090  23.6928770  48.1534310
  66.5926360  21.2872910  49.7665370  66.7122570  20.6914050  50.5060210
  67.4520360  21.3242600  49.3466670  68.9314260  21.8410100  48.3427880
  68.4049480  22.3652720  47.7393020  69.2745600  22.4737490  48.9737610
  61.3300650  19.2303470  34.7877590  61.1289710  18.3670830  35.1490930
  61.1592700  19.1436830  33.8499190  62.1069880  29.8609740  49.4985260
  61.5690970  30.5855800  49.1793960  62.3603840  29.3840080  48.7082600
  63.3595130  17.8294260  51.0241190  63.9494820  17.5210110  51.7119010
  62.5415370  17.3574010  51.1801090  68.1788560  17.4460070  51.2574210
  67.4904080  16.7841610  51.1924200  68.8994580  16.9998340  51.7022670
  68.8088960  14.0411700  37.3164470  69.0891250  13.1979600  37.6723890
  68.0354690  14.2734810  37.8303220  60.1283450  16.3304090  34.7755470
  60.4309350  16.3371520  33.8674620  60.8678040  15.9801950  35.2723130
  64.9632090  31.0960950  49.7571910  64.8890790  31.9996090  50.0644280
  64.0610930  30.7772850  49.7293980  63.3468380  15.2738710  35.7611670
  62.9990380  14.5962700  35.1814120  63.5481150  14.8128220  36.5755060
  65.5117420  30.2619460  37.3798270  66.4068210  30.6004430  37.4017030
  65.5435050  29.5398870  36.7522550  59.1513580  25.6346510  35.6085270
  59.5888450  26.1776180  36.2642850  59.6361310  24.8093460  35.6181610
  56.3659380  28.4235540  43.0605530  56.6962390  27.5556600  42.8284170
  56.7950380  28.6294060  43.8910490  60.9621300  26.7544550  40.7207500
  60.6616840  26.6309520  41.6211410  60.8558790  25.8953140  40.3123230
  56.8549590  29.2906130  45.7987160  56.4180580  29.4706930  46.6311310
  57.4227270  30.0480750  45.6568880  72.4911770  28.7923130  50.0864470
  71.8913760  28.8515690  49.3428390  72.6205670  27.8528110  50.2161320
  73.7313220  26.5340950  35.4234180  72.9006180  26.6017600  35.8941410
  73.9085050  27.4245070  35.1201040  73.1869680  23.2788430  37.9268380
  73.9488590  23.8485080  38.0328070  73.2024050  22.7115630  38.6976690
  56.6874020  21.8026360  42.1576040  56.0322860  21.5338000  41.5135740
  57.5251970  21.6930840  41.7078020  74.1929650  24.1338530  42.7710310
  74.5638480  23.3505850  42.3646280  74.8331580  24.8227630  42.5927610
  71.1763410  25.5175110  48.1840630  70.3623250  25.9472270  48.4466420
  71.5837610  26.1293520  47.5709680  73.2388850  23.5722800  35.0840900
  73.5137690  24.4801680  34.9560120  73.0499590  23.5085330  36.0202890
  69.6364460  16.5967650  36.3794530  70.0549340  16.4098630  35.5391190
  69.3300520  15.7446700  36.6897460  73.1354190  21.5091790  40.0770330
  72.7597790  20.7419720  39.6451620  72.4057310  21.8914490  40.5645260
  57.7249950  22.1878930  46.6979380  58.0922990  22.1006330  47.5775400
  57.1560770  21.4245480  46.5986240  72.5253810  20.6563310  49.7109850
  72.2939900  20.4276060  48.8107800  72.7858360  21.5762860  49.6654740
  57.2765950  19.0988020  50.6037800  56.3822000  19.0654780  50.9431510
  57.8163500  19.2974810  51.3689050  70.9641880  15.8819740  52.4889550
  71.8412060  15.8903140  52.8723550  70.9762720  15.1450580  51.8781900
  55.9012100  19.0125290  38.1001370  54.9976180  19.2755490  37.9253030
  56.3852720  19.2836460  37.3201330  72.4105150  19.7349280  43.3777570
  72.9342630  19.2411930  42.7467740  72.9964570  19.8699640  44.1225140
  72.5894870  19.8189150  46.8997120  71.6397580  19.7852690  47.0142110
  72.7707880  20.7289260  46.6646890  58.4439310  18.0690830  36.0095750
  59.1531010  17.6474050  35.5243030  57.7279250  18.1366060  35.3779100
  58.0913470  14.1230160  35.0498400  58.8141600  14.6639100  35.3679620
  58.3637990  13.8493580  34.1739940  71.9005120  18.9922630  39.3169980
  72.3964240  18.7593500  40.1018860  71.7021190  18.1534470  38.9007620
  57.7805660  13.3736350  44.9521020  58.4281850  12.8233730  44.5116180
  58.2007500  13.6279500  45.7736830  73.3292280  17.6283580  41.8507660
  73.2191560  17.4739620  42.7889930  74.0899870  17.1004520  41.6083070
  71.6758000  13.5677710  48.3090660  72.3130220  14.1811850  48.6749850
  71.8232890  13.6038370  47.3639890  74.2182550  15.4591500  35.0913800
  75.1431860  15.3272680  34.8832090  74.1958340  15.5384320  36.0450250
  74.2921040  16.2302160  37.7170510  73.4972540  16.1647280  38.2463420
  74.4964320  17.1652800  37.7055860  71.2339460  30.2693710  41.7108900
  71.8298530  29.9478280  41.0343320  71.4917610  29.7965530  42.5022170
  57.5337660  13.5292020  47.6946340  57.1852480  13.9855840  48.4604520
  57.2025360  12.6349150  47.7768770  59.1402030  26.7011620  51.8599530
  59.0971660  26.3304530  52.7413990  59.2713040  27.6389190  52.0001350
  62.8408060  28.2571210  47.4609250  62.5999420  28.5245770  46.5739770
  63.7810700  28.4276940  47.5160110  65.0462480  14.7203900  51.2165760
  64.9851370  15.3125730  51.9661170  65.9862860  14.6129860  51.0716020
  67.6837040  14.3773960  50.8558050  68.2977450  14.6953250  50.1939130
  68.2286600  13.8922550  51.4753910  74.1012220  30.2765590  48.2619890
  73.6070500  30.6734460  47.5447020  73.4925510  29.6514800  48.6557170
  58.2058300  13.0568220  50.9697110  58.7541290  12.8756270  50.2063220
  58.2713610  12.2662330  51.5053420  58.9790060  29.6473870  48.9797310
  58.3850380  29.5158570  49.7187350  58.9713900  28.8112010  48.5139410
  68.4245080  12.9406100  47.1827340  67.5504920  13.2741210  46.9800270
  68.3155830  12.4679280  48.0079210  69.3317060  15.1476970  48.5669060
  69.0030420  14.3328730  48.1870790  70.2799360  15.1046780  48.4434750
  71.7851670  30.9189010  45.5406630  71.3254640  31.6704820  45.1664650
  71.1564130  30.1995480  45.4821430  58.6102290  27.0132250  47.9305350
  57.8836350  26.3937540  47.8631300  58.6711440  27.4072860  47.0603430
  62.2147390  29.2277250  44.7154760  62.7312410  28.6164610  44.1903020
  62.8644770  29.7306030  45.2065770  64.9542890  30.1185740  45.5423740
  65.2420700  29.8640040  44.6656750  65.4666110  29.5663100  46.1329310
  66.1719900  13.8575940  46.1220250  65.3891690  14.3321440  46.4017010
  65.8782830  12.9530770  46.0133430  70.7240970  14.5599040  44.1669340
  71.1649060  14.5044140  43.3190940  70.4548560  15.4757050  44.2379520
  72.5879540  14.1914280  42.1778160  72.5267940  13.2475500  42.0309180
  73.3671570  14.2994370  42.7231620  56.8932290  30.3306640  41.1402110
  56.7254330  29.6977320  41.8384000  56.0266800  30.5366040  40.7896300
  57.5160310  14.1623420  38.6433970  58.2739670  14.2752300  38.0698000
  57.0537480  14.9992620  38.5977400  64.0574120  16.2762690  41.6336280
  63.2448630  15.9019580  41.2932160  64.5615760  15.5207770  41.9357470
  68.5599100  12.9405140  42.8719350  69.1628470  13.5125350  43.3467870
  67.8192090  13.5044580  42.6493250  71.7033700  13.3426700  38.1459630
  71.8984330  14.2410150  38.4127060  70.9163570  13.1113780  38.6392580
  58.4994990  29.0239870  38.5852250  57.9742610  29.4047900  37.8814210
  58.4239570  29.6490640  39.3061960  59.8885460  14.6887470  37.1835940
  60.4178220  13.9017270  37.0543890  60.5213780  15.3678660  37.4171470
  62.0823300  14.4262610  40.2381330  61.4526040  13.7249920  40.4051460
  61.5428440  15.1866740  40.0214490  65.0215250  31.0401840  52.9091940
  65.9482560  30.8046110  52.9527900  65.0065680  31.8673840  52.4277970
  73.2560310  30.5827410  39.9066190  73.4312500  29.8965150  39.2627110
  72.5581880  31.1074460  39.5142860  62.2078860  13.7046590  52.6733820
  61.9263130  14.2080190  51.9094640  62.5898560  12.9068340  52.3075950
  61.0987960  30.9722250  37.4601500  61.8306780  30.6881530  36.9125390
  61.3581630  30.7335530  38.3500880  60.2602750  27.0886980  37.4647830
  59.6311630  27.5572080  38.0133660  60.3750580  26.2436200  37.8994020
  68.8094320  13.1200170  53.2514290  68.6959770  13.4394780  54.1465810
  69.6264060  13.5212680  52.9551570  71.5892810  30.2671700  52.7332980
  72.3818130  29.7720930  52.5258940  71.8825960  30.9461840  53.3408590
  67.7152470  21.1392640  23.6149030  67.6346520  20.2247250  23.3440740
  67.3016890  21.6359710  22.9088740  65.8470510  22.9171660  25.4958300
  65.0712610  22.4372100  25.7856870  66.4983440  22.2377310  25.3214460
  59.8636340  23.2291470  26.3734060  59.0321220  22.9740180  26.7730570
  60.4717320  23.3002240  27.1091980  69.8677940  27.3231850  24.2757430
  69.4059470  26.5519090  24.6044600  70.6803490  27.3497920  24.7809880
  59.8437600  27.2631560  26.5692080  60.1465640  26.3729300  26.3902300
  60.5881190  27.8201780  26.3414330  58.2728290  18.1893360  20.1576450
  57.3844990  18.5309330  20.0556330  58.5569480  17.9893680  19.2657280
  56.2361300  20.7899010  26.0416150  56.8077410  20.0221210  26.0419790
  56.2362840  21.0887770  25.1322760  66.0941250  29.6089860  23.8961420
  65.4752690  30.0647360  23.3255860  66.9493030  29.7641320  23.4951120
  65.2879500  25.5928850  25.5028460  65.2187780  24.6518790  25.3417590
  66.0499360  25.6830260  26.0751030  57.4786170  16.1983370  27.8285080
  57.2989010  15.3009120  28.1087840  57.0766250  16.7455240  28.5032030
  66.3184670  18.3999230  25.7297390  66.6949490  17.5271110  25.6171060
  66.2204180  18.7357930  24.8387830  60.4489680  16.7724860  21.1914830
  60.5556430  17.6728590  21.4983590  59.5382040  16.7242830  20.9009480
  70.1008790  15.8949670  22.6625730  70.9218410  15.4046240  22.7051210
  70.1342870  16.4847330  23.4157570  58.0972840  18.6943870  26.4367420
  58.7782950  18.9582240  27.0554820  57.7820890  17.8544740  26.7705430
  62.2897410  19.7411230  25.5240010  62.7975630  20.2392200  26.1645030
  62.8210650  18.9646430  25.3479370  74.3908340  17.9116420  29.2269360
  73.6860510  18.2998130  28.7084470  74.6566260  18.6066710  29.8290290
  60.5733510  14.3809790  29.7903430  60.5751950  14.8982180  28.9849330
  59.7437820  13.9039970  29.7673360  66.9604600  24.4929100  21.2893330
  66.3421870  24.9578550  20.7256050  67.4727850  25.1856580  21.7062840
  61.8236360  24.0204970  27.9676930  61.4905740  24.6473890  28.6098000
  62.0003040  24.5466850  27.1878600  70.3370270  17.8350050  25.4353270
  69.6325840  18.1234940  26.0156380  70.6982430  18.6450160  25.0752830
  60.2548840  16.0919750  27.7973880  60.5965650  16.9361800  27.5027750
  59.3164650  16.2403490  27.9139220  61.0355460  25.9885770  29.7826110
  61.6529460  26.6636850  29.5010560  60.1748580  26.3973750  29.6913610
  56.3287800  25.1785630  18.6632960  55.9515780  25.6672730  17.9317860
  56.5860870  25.8510910  19.2939490  71.9533050  27.4525180  27.6980750
  71.2696570  28.1224290  27.6897420  72.4927340  27.6505830  26.9325610
  73.4057190  17.2804840  25.8262480  72.4582100  17.3143820  25.9577910
  73.7307180  18.0943790  26.2111840  63.9376730  13.5802020  24.1218470
  64.2451710  13.0248910  23.4053970  63.0077430  13.7146480  23.9391460
  69.4891790  29.2969310  26.4125930  69.5018950  28.8931600  25.5448190
  68.9367010  30.0716600  26.3087360  70.7837210  26.0185530  21.5016100
  70.6733540  25.0759860  21.6265520  70.7805460  26.3801170  22.3878860
  68.8877230  24.1999150  27.7408540  69.3046020  23.9859260  26.9062000
  69.6117050  24.4571940  28.3117160  66.3257490  21.6450850  20.8578590
  65.3986770  21.5788230  21.0867060  66.4782310  22.5830980  20.7433830
  66.3126570  17.9167850  17.8545750  65.3730240  18.0781810  17.9398210
  66.6309830  18.6353530  17.3081740  72.8339330  22.5986370  27.8324780
  72.0057960  22.6679460  27.3574910  73.4289810  23.1840680  27.3640610
  70.3554780  23.2071150  21.3613840  69.7367200  22.8690700  20.7140140
  70.3379230  22.5630910  22.0693030  69.7981340  19.3855690  28.7779650
  69.3852520  20.2109400  29.0319640  69.0657290  18.8000730  28.5856010
  61.9314130  22.1715590  23.6398320  61.5271130  21.4592840  23.1444220
  62.0177250  21.8268830  24.5286360  62.3995830  25.8583150  25.8037530
  62.1024120  25.2528620  25.1245310  63.3495650  25.8960460  25.6926890
  60.6442750  18.9458800  27.4197360  61.1957340  19.0554140  26.6450610
  61.1586260  19.3196400  28.1352590  70.4881440  29.4315020  29.4660630
  70.0112000  30.2387210  29.2733240  69.8043230  28.7793350  29.6186840
  61.4914260  25.5964840  32.4545330  60.5942790  25.8204810  32.7018730
  61.5167130  25.7199780  31.5056730  68.5319480  22.4457960  18.3686590
  68.9712760  21.6080390  18.2224410  69.2447900  23.0787360  18.4550730
  60.3185480  22.4678160  31.0302700  60.1793250  23.3400960  31.3990100
  59.4366840  22.1250970  30.8850640  66.6414860  27.3854030  22.3367830
  67.0810770  28.1278360  21.9223220  66.5801750  27.6280600  23.2606790
  62.1165830  28.4099860  33.2387850  62.0881260  28.8142810  32.3716280
  61.9530800  27.4810220  33.0759450  72.1136620  13.7000770  16.6827630
  71.8009280  13.7927600  17.5826700  72.8749090  14.2781800  16.6325060
  58.6318760  21.0660570  21.1404970  58.5116360  21.7922660  20.5286240
  58.3219650  20.2963480  20.6632880  74.0680650  29.1926960  34.5352020
  74.5440370  29.6709850  35.2141100  74.6887810  29.1244450  33.8097520
  56.2704130  24.2375710  26.9473610  56.3484550  24.3724480  26.0029330
  56.8845810  23.5291600  27.1401730  57.5151760  25.9375900  23.3579790
  57.1079840  26.0790490  22.5033390  58.4064770  25.6536060  23.1551000
  73.4713900  26.3839810  31.6952030  73.5976960  26.1451690  30.7769210
  73.5135280  25.5524350  32.1674110  67.3330640  30.0867810  30.2646840
  67.8475310  29.9975820  31.0669270  66.4899720  30.4327510  30.5574750
  69.3085040  30.3723150  19.6930840  69.1486180  30.0826090  20.5912670
  69.1431750  29.5963280  19.1576070  61.7873420  30.1521680  21.4702460
  61.6115900  29.2357220  21.2570260  60.9329160  30.5108970  21.7100260
  69.0111170  27.8810710  18.2528840  68.3176330  27.8788000  17.5931120
  69.7534030  27.4570030  17.8223010  68.5761100  29.5073420  22.3277330
  69.0318050  28.7262800  22.6415950  68.9153620  30.2180240  22.8718510
  73.3237910  18.4372270  32.6601770  72.7082180  18.9451940  32.1317230
  73.0034330  17.5370600  32.6027710  56.3263650  25.2789880  29.4868070
  56.4894690  24.8095240  28.6687440  56.7916100  24.7713440  30.1516910
  61.0982420  14.4095640  24.5228640  60.6550570  15.1905180  24.1913160
  61.6567410  14.7325530  25.2299580  65.3852230  17.2764160  30.1263960
  64.9231600  17.4847180  30.9383900  64.9830340  16.4623510  29.8234630
  70.3856740  18.4973110  31.2560620  69.5350330  18.1978860  31.5769690
  70.2258530  18.7415120  30.3444440  67.4806450  19.9974860  33.3559410
  67.8059860  19.1638610  33.0161640  68.2686780  20.5203380  33.5037740
  64.2141240  14.0306340  19.4034470  63.5895420  14.0266210  20.1287780
  64.1271360  13.1637300  19.0070440  63.1358320  14.9542970  26.3818240
  63.4330650  15.8605800  26.3010260  63.6843880  14.4661750  25.7677810
  60.8896640  19.5329210  22.2509890  60.6637560  19.3166380  23.1556510
  60.1089170  19.9657670  21.9055860  68.1194400  19.5392580  20.8500540
  67.5203290  20.2628380  20.6664160  68.6674010  19.4769360  20.0676990
  63.3295850  20.4314790  32.9170160  63.2339450  19.4909520  32.7670560
  64.1727830  20.6529860  32.5218230  66.7259270  18.1756120  22.8803820
  67.1188840  18.4928320  22.0672510  67.0876120  17.2968000  22.9948340
  58.4606390  16.8428460  31.0703940  58.0669780  17.6903670  31.2776720
  57.7724790  16.2054830  31.2612580  65.0351440  16.9263430  34.1400680
  64.3449760  16.7335630  34.7746770  65.7783740  17.2098070  34.6724980
  55.7623440  14.7656920  25.1034020  55.4736490  15.3359780  25.8159000
  56.5069200  14.2861370  25.4665250  55.9493670  18.7077040  16.3136740
  55.8668340  19.6507800  16.4551730  55.5976730  18.5651950  15.4349090
  67.3114410  20.7661870  26.9754600  66.5795530  21.2748680  27.3244700
  66.9138750  19.9491850  26.6743380  63.7491800  17.4416070  25.3807090
  63.7527860  17.0006020  24.5311630  64.6442920  17.7633400  25.4878910
  59.5994180  17.3242560  24.3401300  59.2594230  17.8017790  25.0968350
  58.8371500  16.8707680  23.9802400  63.8111950  18.4428150  18.3713850
  63.9324770  18.4014630  19.3199670  63.4260460  19.3052300  18.2160580
  67.7740320  16.2195550  26.3877540  67.7913060  16.6704200  27.2319390
  67.5255900  15.3201190  26.6010980  62.8233450  20.7529290  17.7697150
  62.2550350  20.3047540  17.1433060  63.5322450  21.1122070  17.2362300
  71.2011070  13.6327730  32.2263920  71.5256840  12.9017390  32.7521900
  71.2367580  13.3141370  31.3244910  57.9002630  24.6541310  31.6463880
  57.5157420  24.0134980  32.2446840  58.2114820  25.3577430  32.2158610
  64.0499770  21.5017850  27.1272500  64.4169900  21.0276420  27.8733840
  63.8604830  22.3759420  27.4680840  56.9140260  16.2461540  23.2565970
  56.6287180  15.8817210  24.0944590  56.8519120  15.5142000  22.6429110
  61.8399140  20.5426490  29.4456710  61.5356210  21.4218470  29.6707070
  62.7945600  20.6026280  29.4814150  60.3680930  24.7487480  20.0423560
  59.5943190  24.2085100  19.8822280  61.0975560  24.2294090  19.7041320
  71.1268910  23.7452840  25.8349950  71.8468030  24.2408130  25.4446060
  70.9250730  23.0670730  25.1903820  66.5878850  15.1390800  19.9779340
  65.7743460  14.6403970  19.9024650  66.3940800  15.9789050  19.5615690
  66.5087710  23.8161900  31.7218950  66.4425020  22.8957570  31.4676540
  65.8792850  23.9137340  32.4363590  69.3027240  19.5110450  18.2741500
  70.1906860  19.8227680  18.0992840  69.2732330  18.6382700  17.8822080
  60.4118330  24.4167860  23.6802370  60.9297000  23.6136120  23.6259260
  59.9602350  24.3547000  24.5219200  65.2987830  25.6834140  18.9529670
  65.6403530  26.4276370  18.4572990  64.4700540  25.9965260  19.3154500
  57.8962870  21.3829230  30.5928070  57.5377810  22.0483080  31.1801410
  57.6017430  20.5512780  30.9640690  61.0975990  21.8413470  33.4767620
  60.7976130  21.9870650  32.5795440  61.8687230  21.2818760  33.3841010
  66.4404440  26.6382470  31.4722750  66.4548980  25.7063430  31.2541660
  65.7329540  26.7242230  32.1112520  71.5741510  20.8222290  17.7421360
  71.4905230  21.2536510  16.8917800  72.2935700  21.2820640  18.1748180
  72.6515650  23.2789810  30.8191330  71.9263840  23.8718590  30.6220720
  73.1791110  23.2713350  30.0204700  72.6028760  27.6764550  20.4703490
  71.9604920  27.0220170  20.7447210  72.2159420  28.0819640  19.6944160
  68.1815240  25.0049980  24.3175180  68.5339060  24.4078110  23.6576550
  67.2977570  24.6794210  24.4883430  64.2678520  25.7647670  21.7245590
  64.9549650  26.3116880  22.1053180  63.4810940  26.3088400  21.7595200
  56.4070920  21.3820490  17.2162670  57.2765770  21.6645290  17.4998590
  55.9161240  22.1956360  17.1011480  63.5705730  22.7693700  21.3370950
  64.0268510  23.5798950  21.5631140  63.2193940  22.4516840  22.1689440
  65.8738340  28.2800040  28.5663250  66.5180560  28.4859420  29.2436670
  66.2367780  27.5188440  28.1134100  59.4717510  13.1131350  21.8093470
  59.3432140  13.1049250  22.7578390  58.6479530  13.4514440  21.4584480
  67.1470420  26.2832390  27.2840700  67.7892650  25.5825550  27.3972870
  67.6719770  27.0630830  27.1037590  70.9926140  26.5681010  17.0079840
  70.7663720  25.8511450  17.6004480  70.6022340  26.3193450  16.1701590
  68.9208040  27.0827290  30.4876760  69.2564280  27.6693980  31.1654680
  68.0008380  26.9520000  30.7174550  56.7742170  30.5947870  17.7824300
  57.1339810  31.1937210  17.1281570  56.6334510  31.1407760  18.5559330
  56.4711440  14.8722470  31.2700170  55.7569960  15.0719390  31.8752780
  56.8906480  14.0962040  31.6414970  70.5742390  24.4852950  18.6694000
  70.2864090  24.9465640  19.4571880  71.3694560  24.0250720  18.9378220
  56.7584030  28.8602730  32.2566700  56.8675150  27.9197470  32.1162090
  56.1064590  29.1257480  31.6080430  64.7496620  27.1318620  33.6564820
  64.4293490  26.4127860  34.2010510  64.0754980  27.8073690  33.7300880
  62.7910790  27.9779070  18.5997970  62.7820890  28.7108760  17.9842480
  61.8709150  27.7310650  18.6924930  58.3917430  23.1993960  19.3444730
  57.7845380  23.9392860  19.3540030  58.8666780  23.2893320  18.5182930
  67.9650220  17.3644780  29.0201620  68.3331040  16.5439990  29.3481190
  67.1048420  17.4246670  29.4357270  71.3312250  16.3201720  19.8289180
  70.7025410  16.4247390  19.1147410  70.8364170  16.5398500  20.6183060
  65.7770390  28.0407310  17.2623160  65.8782370  27.8371300  16.3325140
  64.8772130  27.7865590  17.4670940  63.2996280  18.5987670  21.2447060
  62.5912430  19.0674010  21.6860670  63.5840760  17.9409680  21.8792250
  64.9252210  20.0184370  29.2439590  65.4237460  20.4930190  29.9091440
  65.0675160  19.0947890  29.4509620  67.3311710  15.3238330  22.6842850
  67.2079490  15.3424460  21.7352360  68.2796270  15.3717270  22.8041250
  64.4188500  30.5593630  21.9570830  64.6730000  30.5215020  21.0350200
  63.4700980  30.4326960  21.9499080  61.5031300  16.9072750  18.6197770
  62.3521830  17.3442900  18.5537960  61.1362570  17.2193010  19.4469830
  72.1319070  16.2352330  30.0867980  71.6292670  16.9757730  30.4261790
  72.9475730  16.6236330  29.7704770  70.4241080  21.4785510  23.5329340
  69.4831220  21.4935740  23.7077030  70.7385150  20.6921470  23.9789640
  60.4022720  23.1605110  17.0933300  61.1685990  23.0486470  17.6558730
  60.4797410  22.4643080  16.4410070  59.0969480  20.5930180  17.7766190
  59.1773070  19.6457690  17.8883590  59.9889230  20.9237060  17.8826850
  72.4266660  28.6494360  25.2083600  72.5514080  29.4725530  25.6807410
  73.2932220  28.4385090  24.8607750  59.8984190  30.7425570  24.8800730
  60.6346670  30.1941030  25.1509300  60.2825110  31.6081580  24.7406720
  56.7829670  26.8099140  20.7542240  55.8569450  27.0520280  20.7447650
  57.2486100  27.6373400  20.6326990  58.9042470  29.9271640  34.0686310
  59.7055200  30.2483690  34.4821710  58.3894290  29.5667220  34.7906220
  63.0086500  29.9155880  16.7026300  63.8015110  30.2044710  16.2508090
  62.4890850  29.4848050  16.0238780  67.7407100  26.0351510  34.0161720
  67.1345260  26.0583110  33.2757470  67.4361210  25.3034550  34.5528970
  69.1707470  29.7631800  32.6271130  70.1229220  29.6789820  32.5771370
  69.0235690  30.4273510  33.3004920  72.0616670  29.1426010  18.1263040
  71.7758180  28.7291150  17.3117220  71.8636220  30.0713720  18.0063560
  56.6240280  22.4145100  33.0122360  57.1279300  21.8352380  33.5838590
  55.8847700  22.6985330  33.5498730  63.5263900  25.1359290  16.5668650
  63.4214540  24.5211640  17.2930030  63.3588120  24.6125180  15.7831660
  63.6778220  23.8216090  32.5457880  62.9123890  24.3901090  32.4612550
  63.8594180  23.5292300  31.6526110  66.7666630  24.1979320  17.1710640
  66.2176730  24.6448620  17.8153380  67.3885890  23.6928570  17.6948310
  70.8201570  25.5521420  33.1032900  71.5611040  25.8897180  32.6000360
  70.0574250  25.7213480  32.5502670  58.6563360  20.5574690  33.9072430
  58.6968700  20.2588560  34.8157660  59.5108860  20.9582300  33.7479950
  62.4341750  23.1570240  19.0675940  62.8558170  22.9910110  19.9107330
  62.5592590  22.3470470  18.5731080  60.5969170  19.1366790  31.8746920
  60.0665630  18.6457740  31.2470260  61.2657240  19.5650990  31.3404850
  64.9469390  22.1807850  16.3153040  65.4675050  21.4656870  15.9494190
  65.5937790  22.8193720  16.6153550  69.4947230  23.6036250  31.6388110
  69.9088250  23.7581330  32.4878530  68.5598230  23.7291470  31.8013890
  69.9669400  20.9432410  33.6427260  70.5490170  20.1884730  33.5547740
  70.1431170  21.4739850  32.8658740  61.0841470  16.1029160  31.9544210
  60.9898340  15.4849910  31.2295080  60.5038860  16.8295450  31.7274120
  63.8502910  14.6602400  28.9871600  63.4020210  14.6826660  28.1417150
  63.2168110  14.2621420  29.5841900  64.2562460  23.5556730  29.6084040
  64.6750570  24.3989460  29.4360280  63.3371090  23.6928770  29.3790820
  66.5926360  21.2872910  30.9921880  66.7122570  20.6914050  31.7316720
  67.4520360  21.3242600  30.5723180  68.9314260  21.8410100  29.5684390
  68.4049480  22.3652720  28.9649530  69.2745600  22.4737490  30.1994120
  61.3300650  19.2303470  16.0134100  61.1289710  18.3670830  16.3747440
  61.1592700  19.1436830  15.0755700  62.1069880  29.8609740  30.7241770
  61.5690970  30.5855800  30.4050470  62.3603840  29.3840080  29.9339110
  63.3595130  17.8294260  32.2497700  63.9494820  17.5210110  32.9375520
  62.5415370  17.3574010  32.4057600  68.1788560  17.4460070  32.4830720
  67.4904080  16.7841610  32.4180710  68.8994580  16.9998340  32.9279180
  68.8088960  14.0411700  18.5420980  69.0891250  13.1979600  18.8980400
  68.0354690  14.2734810  19.0559730  60.1283450  16.3304090  16.0011980
  60.4309350  16.3371520  15.0931130  60.8678040  15.9801950  16.4979640
  64.9632090  31.0960950  30.9828420  64.8890790  31.9996090  31.2900790
  64.0610930  30.7772850  30.9550490  63.3468380  15.2738710  16.9868180
  62.9990380  14.5962700  16.4070630  63.5481150  14.8128220  17.8011570
  65.5117420  30.2619460  18.6054780  66.4068210  30.6004430  18.6273540
  65.5435050  29.5398870  17.9779060  59.1513580  25.6346510  16.8341780
  59.5888450  26.1776180  17.4899360  59.6361310  24.8093460  16.8438120
  56.3659380  28.4235540  24.2862040  56.6962390  27.5556600  24.0540680
  56.7950380  28.6294060  25.1167000  60.9621300  26.7544550  21.9464010
  60.6616840  26.6309520  22.8467920  60.8558790  25.8953140  21.5379740
  56.8549590  29.2906130  27.0243670  56.4180580  29.4706930  27.8567820
  57.4227270  30.0480750  26.8825390  72.4911770  28.7923130  31.3120980
  71.8913760  28.8515690  30.5684900  72.6205670  27.8528110  31.4417830
  73.7313220  26.5340950  16.6490690  72.9006180  26.6017600  17.1197920
  73.9085050  27.4245070  16.3457550  73.1869680  23.2788430  19.1524890
  73.9488590  23.8485080  19.2584580  73.2024050  22.7115630  19.9233200
  56.6874020  21.8026360  23.3832550  56.0322860  21.5338000  22.7392250
  57.5251970  21.6930840  22.9334530  74.1929650  24.1338530  23.9966820
  74.5638480  23.3505850  23.5902790  74.8331580  24.8227630  23.8184120
  71.1763410  25.5175110  29.4097140  70.3623250  25.9472270  29.6722930
  71.5837610  26.1293520  28.7966190  73.2388850  23.5722800  16.3097410
  73.5137690  24.4801680  16.1816630  73.0499590  23.5085330  17.2459400
  69.6364460  16.5967650  17.6051040  70.0549340  16.4098630  16.7647700
  69.3300520  15.7446700  17.9153970  73.1354190  21.5091790  21.3026840
  72.7597790  20.7419720  20.8708130  72.4057310  21.8914490  21.7901770
  57.7249950  22.1878930  27.9235890  58.0922990  22.1006330  28.8031910
  57.1560770  21.4245480  27.8242750  72.5253810  20.6563310  30.9366360
  72.2939900  20.4276060  30.0364310  72.7858360  21.5762860  30.8911250
  57.2765950  19.0988020  31.8294310  56.3822000  19.0654780  32.1688020
  57.8163500  19.2974810  32.5945560  70.9641880  15.8819740  33.7146060
  71.8412060  15.8903140  34.0980060  70.9762720  15.1450580  33.1038410
  55.9012100  19.0125290  19.3257880  54.9976180  19.2755490  19.1509540
  56.3852720  19.2836460  18.5457840  72.4105150  19.7349280  24.6034080
  72.9342630  19.2411930  23.9724250  72.9964570  19.8699640  25.3481650
  72.5894870  19.8189150  28.1253630  71.6397580  19.7852690  28.2398620
  72.7707880  20.7289260  27.8903400  58.4439310  18.0690830  17.2352260
  59.1531010  17.6474050  16.7499540  57.7279250  18.1366060  16.6035610
  58.0913470  14.1230160  16.2754910  58.8141600  14.6639100  16.5936130
  58.3637990  13.8493580  15.3996450  71.9005120  18.9922630  20.5426490
  72.3964240  18.7593500  21.3275370  71.7021190  18.1534470  20.1264130
  57.7805660  13.3736350  26.1777530  58.4281850  12.8233730  25.7372690
  58.2007500  13.6279500  26.9993340  73.3292280  17.6283580  23.0764170
  73.2191560  17.4739620  24.0146440  74.0899870  17.1004520  22.8339580
  71.6758000  13.5677710  29.5347170  72.3130220  14.1811850  29.9006360
  71.8232890  13.6038370  28.5896400  74.2182550  15.4591500  16.3170310
  75.1431860  15.3272680  16.1088600  74.1958340  15.5384320  17.2706760
  74.2921040  16.2302160  18.9427020  73.4972540  16.1647280  19.4719930
  74.4964320  17.1652800  18.9312370  71.2339460  30.2693710  22.9365410
  71.8298530  29.9478280  22.2599830  71.4917610  29.7965530  23.7278680
  57.5337660  13.5292020  28.9202850  57.1852480  13.9855840  29.6861030
  57.2025360  12.6349150  29.0025280  59.1402030  26.7011620  33.0856040
  59.0971660  26.3304530  33.9670500  59.2713040  27.6389190  33.2257860
  62.8408060  28.2571210  28.6865760  62.5999420  28.5245770  27.7996280
  63.7810700  28.4276940  28.7416620  65.0462480  14.7203900  32.4422270
  64.9851370  15.3125730  33.1917680  65.9862860  14.6129860  32.2972530
  67.6837040  14.3773960  32.0814560  68.2977450  14.6953250  31.4195640
  68.2286600  13.8922550  32.7010420  74.1012220  30.2765590  29.4876400
  73.6070500  30.6734460  28.7703530  73.4925510  29.6514800  29.8813680
  58.2058300  13.0568220  32.1953620  58.7541290  12.8756270  31.4319730
  58.2713610  12.2662330  32.7309930  58.9790060  29.6473870  30.2053820
  58.3850380  29.5158570  30.9443860  58.9713900  28.8112010  29.7395920
  68.4245080  12.9406100  28.4083850  67.5504920  13.2741210  28.2056780
  68.3155830  12.4679280  29.2335720  69.3317060  15.1476970  29.7925570
  69.0030420  14.3328730  29.4127300  70.2799360  15.1046780  29.6691260
  71.7851670  30.9189010  26.7663140  71.3254640  31.6704820  26.3921160
  71.1564130  30.1995480  26.7077940  58.6102290  27.0132250  29.1561860
  57.8836350  26.3937540  29.0887810  58.6711440  27.4072860  28.2859940
  62.2147390  29.2277250  25.9411270  62.7312410  28.6164610  25.4159530
  62.8644770  29.7306030  26.4322280  64.9542890  30.1185740  26.7680250
  65.2420700  29.8640040  25.8913260  65.4666110  29.5663100  27.3585820
  66.1719900  13.8575940  27.3476760  65.3891690  14.3321440  27.6273520
  65.8782830  12.9530770  27.2389940  70.7240970  14.5599040  25.3925850
  71.1649060  14.5044140  24.5447450  70.4548560  15.4757050  25.4636030
  72.5879540  14.1914280  23.4034670  72.5267940  13.2475500  23.2565690
  73.3671570  14.2994370  23.9488130  56.8932290  30.3306640  22.3658620
  56.7254330  29.6977320  23.0640510  56.0266800  30.5366040  22.0152810
  57.5160310  14.1623420  19.8690480  58.2739670  14.2752300  19.2954510
  57.0537480  14.9992620  19.8233910  64.0574120  16.2762690  22.8592790
  63.2448630  15.9019580  22.5188670  64.5615760  15.5207770  23.1613980
  68.5599100  12.9405140  24.0975860  69.1628470  13.5125350  24.5724380
  67.8192090  13.5044580  23.8749760  71.7033700  13.3426700  19.3716140
  71.8984330  14.2410150  19.6383570  70.9163570  13.1113780  19.8649090
  58.4994990  29.0239870  19.8108760  57.9742610  29.4047900  19.1070720
  58.4239570  29.6490640  20.5318470  59.8885460  14.6887470  18.4092450
  60.4178220  13.9017270  18.2800400  60.5213780  15.3678660  18.6427980
  62.0823300  14.4262610  21.4637840  61.4526040  13.7249920  21.6307970
  61.5428440  15.1866740  21.2471000  65.0215250  31.0401840  34.1348450
  65.9482560  30.8046110  34.1784410  65.0065680  31.8673840  33.6534480
  73.2560310  30.5827410  21.1322700  73.4312500  29.8965150  20.4883620
  72.5581880  31.1074460  20.7399370  62.2078860  13.7046590  33.8990330
  61.9263130  14.2080190  33.1351150  62.5898560  12.9068340  33.5332460
  61.0987960  30.9722250  18.6858010  61.8306780  30.6881530  18.1381900
  61.3581630  30.7335530  19.5757390  60.2602750  27.0886980  18.6904340
  59.6311630  27.5572080  19.2390170  60.3750580  26.2436200  19.1250530
  68.8094320  13.1200170  34.4770800  68.6959770  13.4394780  35.3722320
  69.6264060  13.5212680  34.1808080  71.5892810  30.2671700  33.9589490
  72.3818130  29.7720930  33.7515450  71.8825960  30.9461840  34.5665100
  67.7152470  21.1392640   4.8405540  67.6346520  20.2247250   4.5697250
  67.3016890  21.6359710   4.1345250  65.8470510  22.9171660   6.7214810
  65.0712610  22.4372100   7.0113380  66.4983440  22.2377310   6.5470970
  59.8636340  23.2291470   7.5990570  59.0321220  22.9740180   7.9987080
  60.4717320  23.3002240   8.3348490  69.8677940  27.3231850   5.5013940
  69.4059470  26.5519090   5.8301110  70.6803490  27.3497920   6.0066390
  59.8437600  27.2631560   7.7948590  60.1465640  26.3729300   7.6158810
  60.5881190  27.8201780   7.5670840  56.2361300  20.7899010   7.2672660
  56.8077410  20.0221210   7.2676300  56.2362840  21.0887770   6.3579270
  66.0941250  29.6089860   5.1217930  65.4752690  30.0647360   4.5512370
  66.9493030  29.7641320   4.7207630  65.2879500  25.5928850   6.7284970
  65.2187780  24.6518790   6.5674100  66.0499360  25.6830260   7.3007540
  57.4786170  16.1983370   9.0541590  57.2989010  15.3009120   9.3344350
  57.0766250  16.7455240   9.7288540  66.3184670  18.3999230   6.9553900
  66.6949490  17.5271110   6.8427570  66.2204180  18.7357930   6.0644340
  60.4489680  16.7724860   2.4171340  60.5556430  17.6728590   2.7240100
  59.5382040  16.7242830   2.1265990  70.1008790  15.8949670   3.8882240
  70.9218410  15.4046240   3.9307720  70.1342870  16.4847330   4.6414080
  58.0972840  18.6943870   7.6623930  58.7782950  18.9582240   8.2811330
  57.7820890  17.8544740   7.9961940  62.2897410  19.7411230   6.7496520
  62.7975630  20.2392200   7.3901540  62.8210650  18.9646430   6.5735880
  74.3908340  17.9116420  10.4525870  73.6860510  18.2998130   9.9340980
  74.6566260  18.6066710  11.0546800  60.5733510  14.3809790  11.0159940
  60.5751950  14.8982180  10.2105840  59.7437820  13.9039970  10.9929870
  66.9604600  24.4929100   2.5149840  66.3421870  24.9578550   1.9512560
  67.4727850  25.1856580   2.9319350  61.8236360  24.0204970   9.1933440
  61.4905740  24.6473890   9.8354510  62.0003040  24.5466850   8.4135110
  70.3370270  17.8350050   6.6609780  69.6325840  18.1234940   7.2412890
  70.6982430  18.6450160   6.3009340  60.2548840  16.0919750   9.0230390
  60.5965650  16.9361800   8.7284260  59.3164650  16.2403490   9.1395730
  61.0355460  25.9885770  11.0082620  61.6529460  26.6636850  10.7267070
  60.1748580  26.3973750  10.9170120  71.9533050  27.4525180   8.9237260
  71.2696570  28.1224290   8.9153930  72.4927340  27.6505830   8.1582120
  73.4057190  17.2804840   7.0518990  72.4582100  17.3143820   7.1834420
  73.7307180  18.0943790   7.4368350  63.9376730  13.5802020   5.3474980
  64.2451710  13.0248910   4.6310480  63.0077430  13.7146480   5.1647970
  69.4891790  29.2969310   7.6382440  69.5018950  28.8931600   6.7704700
  68.9367010  30.0716600   7.5343870  70.7837210  26.0185530   2.7272610
  70.6733540  25.0759860   2.8522030  70.7805460  26.3801170   3.6135370
  68.8877230  24.1999150   8.9665050  69.3046020  23.9859260   8.1318510
  69.6117050  24.4571940   9.5373670  66.3257490  21.6450850   2.0835100
  65.3986770  21.5788230   2.3123570  66.4782310  22.5830980   1.9690340
  72.8339330  22.5986370   9.0581290  72.0057960  22.6679460   8.5831420
  73.4289810  23.1840680   8.5897120  70.3554780  23.2071150   2.5870350
  69.7367200  22.8690700   1.9396650  70.3379230  22.5630910   3.2949540
  69.7981340  19.3855690  10.0036160  69.3852520  20.2109400  10.2576150
  69.0657290  18.8000730   9.8112520  61.9314130  22.1715590   4.8654830
  61.5271130  21.4592840   4.3700730  62.0177250  21.8268830   5.7542870
  62.3995830  25.8583150   7.0294040  62.1024120  25.2528620   6.3501820
  63.3495650  25.8960460   6.9183400  60.6442750  18.9458800   8.6453870
  61.1957340  19.0554140   7.8707120  61.1586260  19.3196400   9.3609100
  70.4881440  29.4315020  10.6917140  70.0112000  30.2387210  10.4989750
  69.8043230  28.7793350  10.8443350  61.4914260  25.5964840  13.6801840
  60.5942790  25.8204810  13.9275240  61.5167130  25.7199780  12.7313240
  60.3185480  22.4678160  12.2559210  60.1793250  23.3400960  12.6246610
  59.4366840  22.1250970  12.1107150  66.6414860  27.3854030   3.5624340
  67.0810770  28.1278360   3.1479730  66.5801750  27.6280600   4.4863300
  62.1165830  28.4099860  14.4644360  62.0881260  28.8142810  13.5972790
  61.9530800  27.4810220  14.3015960  58.6318760  21.0660570   2.3661480
  58.5116360  21.7922660   1.7542750  58.3219650  20.2963480   1.8889390
  74.0680650  29.1926960  15.7608530  74.5440370  29.6709850  16.4397610
  74.6887810  29.1244450  15.0354030  56.2704130  24.2375710   8.1730120
  56.3484550  24.3724480   7.2285840  56.8845810  23.5291600   8.3658240
  57.5151760  25.9375900   4.5836300  57.1079840  26.0790490   3.7289900
  58.4064770  25.6536060   4.3807510  73.4713900  26.3839810  12.9208540
  73.5976960  26.1451690  12.0025720  73.5135280  25.5524350  13.3930620
  67.3330640  30.0867810  11.4903350  67.8475310  29.9975820  12.2925780
  66.4899720  30.4327510  11.7831260  61.7873420  30.1521680   2.6958970
  61.6115900  29.2357220   2.4826770  60.9329160  30.5108970   2.9356770
  68.5761100  29.5073420   3.5533840  69.0318050  28.7262800   3.8672460
  68.9153620  30.2180240   4.0975020  73.3237910  18.4372270  13.8858280
  72.7082180  18.9451940  13.3573740  73.0034330  17.5370600  13.8284220
  56.3263650  25.2789880  10.7124580  56.4894690  24.8095240   9.8943950
  56.7916100  24.7713440  11.3773420  61.0982420  14.4095640   5.7485150
  60.6550570  15.1905180   5.4169670  61.6567410  14.7325530   6.4556090
  65.3852230  17.2764160  11.3520470  64.9231600  17.4847180  12.1640410
  64.9830340  16.4623510  11.0491140  70.3856740  18.4973110  12.4817130
  69.5350330  18.1978860  12.8026200  70.2258530  18.7415120  11.5700950
  67.4806450  19.9974860  14.5815920  67.8059860  19.1638610  14.2418150
  68.2686780  20.5203380  14.7294250  63.1358320  14.9542970   7.6074750
  63.4330650  15.8605800   7.5266770  63.6843880  14.4661750   6.9934320
  60.8896640  19.5329210   3.4766400  60.6637560  19.3166380   4.3813020
  60.1089170  19.9657670   3.1312370  63.3295850  20.4314790  14.1426670
  63.2339450  19.4909520  13.9927070  64.1727830  20.6529860  13.7474740
  66.7259270  18.1756120   4.1060330  67.1188840  18.4928320   3.2929020
  67.0876120  17.2968000   4.2204850  58.4606390  16.8428460  12.2960450
  58.0669780  17.6903670  12.5033230  57.7724790  16.2054830  12.4869090
  65.0351440  16.9263430  15.3657190  64.3449760  16.7335630  16.0003280
  65.7783740  17.2098070  15.8981490  55.7623440  14.7656920   6.3290530
  55.4736490  15.3359780   7.0415510  56.5069200  14.2861370   6.6921760
  67.3114410  20.7661870   8.2011110  66.5795530  21.2748680   8.5501210
  66.9138750  19.9491850   7.8999890  63.7491800  17.4416070   6.6063600
  63.7527860  17.0006020   5.7568140  64.6442920  17.7633400   6.7135420
  59.5994180  17.3242560   5.5657810  59.2594230  17.8017790   6.3224860
  58.8371500  16.8707680   5.2058910  67.7740320  16.2195550   7.6134050
  67.7913060  16.6704200   8.4575900  67.5255900  15.3201190   7.8267490
  71.2011070  13.6327730  13.4520430  71.5256840  12.9017390  13.9778410
  71.2367580  13.3141370  12.5501420  57.9002630  24.6541310  12.8720390
  57.5157420  24.0134980  13.4703350  58.2114820  25.3577430  13.4415120
  64.0499770  21.5017850   8.3529010  64.4169900  21.0276420   9.0990350
  63.8604830  22.3759420   8.6937350  56.9140260  16.2461540   4.4822480
  56.6287180  15.8817210   5.3201100  56.8519120  15.5142000   3.8685620
  61.8399140  20.5426490  10.6713220  61.5356210  21.4218470  10.8963580
  62.7945600  20.6026280  10.7070660  71.1268910  23.7452840   7.0606460
  71.8468030  24.2408130   6.6702570  70.9250730  23.0670730   6.4160330
  66.5087710  23.8161900  12.9475460  66.4425020  22.8957570  12.6933050
  65.8792850  23.9137340  13.6620100  60.4118330  24.4167860   4.9058880
  60.9297000  23.6136120   4.8515770  59.9602350  24.3547000   5.7475710
  57.8962870  21.3829230  11.8184580  57.5377810  22.0483080  12.4057920
  57.6017430  20.5512780  12.1897200  61.0975990  21.8413470  14.7024130
  60.7976130  21.9870650  13.8051950  61.8687230  21.2818760  14.6097520
  66.4404440  26.6382470  12.6979260  66.4548980  25.7063430  12.4798170
  65.7329540  26.7242230  13.3369030  72.6515650  23.2789810  12.0447840
  71.9263840  23.8718590  11.8477230  73.1791110  23.2713350  11.2461210
  68.1815240  25.0049980   5.5431690  68.5339060  24.4078110   4.8833060
  67.2977570  24.6794210   5.7139940  64.2678520  25.7647670   2.9502100
  64.9549650  26.3116880   3.3309690  63.4810940  26.3088400   2.9851710
  63.5705730  22.7693700   2.5627460  64.0268510  23.5798950   2.7887650
  63.2193940  22.4516840   3.3945950  65.8738340  28.2800040   9.7919760
  66.5180560  28.4859420  10.4693180  66.2367780  27.5188440   9.3390610
  59.4717510  13.1131350   3.0349980  59.3432140  13.1049250   3.9834900
  58.6479530  13.4514440   2.6840990  67.1470420  26.2832390   8.5097210
  67.7892650  25.5825550   8.6229380  67.6719770  27.0630830   8.3294100
  68.9208040  27.0827290  11.7133270  69.2564280  27.6693980  12.3911190
  68.0008380  26.9520000  11.9431060  56.4711440  14.8722470  12.4956680
  55.7569960  15.0719390  13.1009290  56.8906480  14.0962040  12.8671480
  56.7584030  28.8602730  13.4823210  56.8675150  27.9197470  13.3418600
  56.1064590  29.1257480  12.8336940  64.7496620  27.1318620  14.8821330
  64.4293490  26.4127860  15.4267020  64.0754980  27.8073690  14.9557390
  67.9650220  17.3644780  10.2458130  68.3331040  16.5439990  10.5737700
  67.1048420  17.4246670  10.6613780  63.2996280  18.5987670   2.4703570
  62.5912430  19.0674010   2.9117180  63.5840760  17.9409680   3.1048760
  64.9252210  20.0184370  10.4696100  65.4237460  20.4930190  11.1347950
  65.0675160  19.0947890  10.6766130  67.3311710  15.3238330   3.9099360
  67.2079490  15.3424460   2.9608870  68.2796270  15.3717270   4.0297760
  64.4188500  30.5593630   3.1827340  64.6730000  30.5215020   2.2606710
  63.4700980  30.4326960   3.1755590  72.1319070  16.2352330  11.3124490
  71.6292670  16.9757730  11.6518300  72.9475730  16.6236330  10.9961280
  70.4241080  21.4785510   4.7585850  69.4831220  21.4935740   4.9333540
  70.7385150  20.6921470   5.2046150  72.4266660  28.6494360   6.4340110
  72.5514080  29.4725530   6.9063920  73.2932220  28.4385090   6.0864260
  59.8984190  30.7425570   6.1057240  60.6346670  30.1941030   6.3765810
  60.2825110  31.6081580   5.9663230  56.7829670  26.8099140   1.9798750
  55.8569450  27.0520280   1.9704160  57.2486100  27.6373400   1.8583500
  58.9042470  29.9271640  15.2942820  59.7055200  30.2483690  15.7078220
  58.3894290  29.5667220  16.0162730  67.7407100  26.0351510  15.2418230
  67.1345260  26.0583110  14.5013980  67.4361210  25.3034550  15.7785480
  69.1707470  29.7631800  13.8527640  70.1229220  29.6789820  13.8027880
  69.0235690  30.4273510  14.5261430  56.6240280  22.4145100  14.2378870
  57.1279300  21.8352380  14.8095100  55.8847700  22.6985330  14.7755240
  63.6778220  23.8216090  13.7714390  62.9123890  24.3901090  13.6869060
  63.8594180  23.5292300  12.8782620  70.8201570  25.5521420  14.3289410
  71.5611040  25.8897180  13.8256870  70.0574250  25.7213480  13.7759180
  58.6563360  20.5574690  15.1328940  58.6968700  20.2588560  16.0414170
  59.5108860  20.9582300  14.9736460  60.5969170  19.1366790  13.1003430
  60.0665630  18.6457740  12.4726770  61.2657240  19.5650990  12.5661360
  69.4947230  23.6036250  12.8644620  69.9088250  23.7581330  13.7135040
  68.5598230  23.7291470  13.0270400  69.9669400  20.9432410  14.8683770
  70.5490170  20.1884730  14.7804250  70.1431170  21.4739850  14.0915250
  61.0841470  16.1029160  13.1800720  60.9898340  15.4849910  12.4551590
  60.5038860  16.8295450  12.9530630  63.8502910  14.6602400  10.2128110
  63.4020210  14.6826660   9.3673660  63.2168110  14.2621420  10.8098410
  64.2562460  23.5556730  10.8340550  64.6750570  24.3989460  10.6616790
  63.3371090  23.6928770  10.6047330  66.5926360  21.2872910  12.2178390
  66.7122570  20.6914050  12.9573230  67.4520360  21.3242600  11.7979690
  68.9314260  21.8410100  10.7940900  68.4049480  22.3652720  10.1906040
  69.2745600  22.4737490  11.4250630  62.1069880  29.8609740  11.9498280
  61.5690970  30.5855800  11.6306980  62.3603840  29.3840080  11.1595620
  63.3595130  17.8294260  13.4754210  63.9494820  17.5210110  14.1632030
  62.5415370  17.3574010  13.6314110  68.1788560  17.4460070  13.7087230
  67.4904080  16.7841610  13.6437220  68.8994580  16.9998340  14.1535690
  64.9632090  31.0960950  12.2084930  64.8890790  31.9996090  12.5157300
  64.0610930  30.7772850  12.1807000  56.3659380  28.4235540   5.5118550
  56.6962390  27.5556600   5.2797190  56.7950380  28.6294060   6.3423510
  60.9621300  26.7544550   3.1720520  60.6616840  26.6309520   4.0724430
  60.8558790  25.8953140   2.7636250  56.8549590  29.2906130   8.2500180
  56.4180580  29.4706930   9.0824330  57.4227270  30.0480750   8.1081900
  72.4911770  28.7923130  12.5377490  71.8913760  28.8515690  11.7941410
  72.6205670  27.8528110  12.6674340  56.6874020  21.8026360   4.6089060
  56.0322860  21.5338000   3.9648760  57.5251970  21.6930840   4.1591040
  74.1929650  24.1338530   5.2223330  74.5638480  23.3505850   4.8159300
  74.8331580  24.8227630   5.0440630  71.1763410  25.5175110  10.6353650
  70.3623250  25.9472270  10.8979440  71.5837610  26.1293520  10.0222700
  73.1354190  21.5091790   2.5283350  72.7597790  20.7419720   2.0964640
  72.4057310  21.8914490   3.0158280  57.7249950  22.1878930   9.1492400
  58.0922990  22.1006330  10.0288420  57.1560770  21.4245480   9.0499260
  72.5253810  20.6563310  12.1622870  72.2939900  20.4276060  11.2620820
  72.7858360  21.5762860  12.1167760  57.2765950  19.0988020  13.0550820
  56.3822000  19.0654780  13.3944530  57.8163500  19.2974810  13.8202070
  70.9641880  15.8819740  14.9402570  71.8412060  15.8903140  15.3236570
  70.9762720  15.1450580  14.3294920  72.4105150  19.7349280   5.8290590
  72.9342630  19.2411930   5.1980760  72.9964570  19.8699640   6.5738160
  72.5894870  19.8189150   9.3510140  71.6397580  19.7852690   9.4655130
  72.7707880  20.7289260   9.1159910  71.9005120  18.9922630   1.7683000
  72.3964240  18.7593500   2.5531880  71.7021190  18.1534470   1.3520640
  57.7805660  13.3736350   7.4034040  58.4281850  12.8233730   6.9629200
  58.2007500  13.6279500   8.2249850  73.3292280  17.6283580   4.3020680
  73.2191560  17.4739620   5.2402950  74.0899870  17.1004520   4.0596090
  71.6758000  13.5677710  10.7603680  72.3130220  14.1811850  11.1262870
  71.8232890  13.6038370   9.8152910  71.2339460  30.2693710   4.1621920
  71.8298530  29.9478280   3.4856340  71.4917610  29.7965530   4.9535190
  57.5337660  13.5292020  10.1459360  57.1852480  13.9855840  10.9117540
  57.2025360  12.6349150  10.2281790  59.1402030  26.7011620  14.3112550
  59.0971660  26.3304530  15.1927010  59.2713040  27.6389190  14.4514370
  62.8408060  28.2571210   9.9122270  62.5999420  28.5245770   9.0252790
  63.7810700  28.4276940   9.9673130  65.0462480  14.7203900  13.6678780
  64.9851370  15.3125730  14.4174190  65.9862860  14.6129860  13.5229040
  67.6837040  14.3773960  13.3071070  68.2977450  14.6953250  12.6452150
  68.2286600  13.8922550  13.9266930  74.1012220  30.2765590  10.7132910
  73.6070500  30.6734460   9.9960040  73.4925510  29.6514800  11.1070190
  58.2058300  13.0568220  13.4210130  58.7541290  12.8756270  12.6576240
  58.2713610  12.2662330  13.9566440  58.9790060  29.6473870  11.4310330
  58.3850380  29.5158570  12.1700370  58.9713900  28.8112010  10.9652430
  68.4245080  12.9406100   9.6340360  67.5504920  13.2741210   9.4313290
  68.3155830  12.4679280  10.4592230  69.3317060  15.1476970  11.0182080
  69.0030420  14.3328730  10.6383810  70.2799360  15.1046780  10.8947770
  71.7851670  30.9189010   7.9919650  71.3254640  31.6704820   7.6177670
  71.1564130  30.1995480   7.9334450  58.6102290  27.0132250  10.3818370
  57.8836350  26.3937540  10.3144320  58.6711440  27.4072860   9.5116450
  62.2147390  29.2277250   7.1667780  62.7312410  28.6164610   6.6416040
  62.8644770  29.7306030   7.6578790  64.9542890  30.1185740   7.9936760
  65.2420700  29.8640040   7.1169770  65.4666110  29.5663100   8.5842330
  66.1719900  13.8575940   8.5733270  65.3891690  14.3321440   8.8530030
  65.8782830  12.9530770   8.4646450  70.7240970  14.5599040   6.6182360
  71.1649060  14.5044140   5.7703960  70.4548560  15.4757050   6.6892540
  72.5879540  14.1914280   4.6291180  72.5267940  13.2475500   4.4822200
  73.3671570  14.2994370   5.1744640  56.8932290  30.3306640   3.5915130
  56.7254330  29.6977320   4.2897020  56.0266800  30.5366040   3.2409320
  64.0574120  16.2762690   4.0849300  63.2448630  15.9019580   3.7445180
  64.5615760  15.5207770   4.3870490  68.5599100  12.9405140   5.3232370
  69.1628470  13.5125350   5.7980890  67.8192090  13.5044580   5.1006270
  62.0823300  14.4262610   2.6894350  61.4526040  13.7249920   2.8564480
  61.5428440  15.1866740   2.4727510  65.0215250  31.0401840  15.3604960
  65.9482560  30.8046110  15.4040920  65.0065680  31.8673840  14.8790990
  73.2560310  30.5827410   2.3579210  73.4312500  29.8965150   1.7140130
  72.5581880  31.1074460   1.9655880  62.2078860  13.7046590  15.1246840
  61.9263130  14.2080190  14.3607660  62.5898560  12.9068340  14.7588970
  68.8094320  13.1200170  15.7027310  68.6959770  13.4394780  16.5978830
  69.6264060  13.5212680  15.4064590  71.5892810  30.2671700  15.1846000
  72.3818130  29.7720930  14.9771960  71.8825960  30.9461840  15.7921610
  65.8470510   4.1428170  63.0445280  65.0712610   3.6628610  63.3343850
  66.4983440   3.4633820  62.8701440  59.8636340   4.4547980  63.9221040
  59.0321220   4.1996690  64.3217550  60.4717320   4.5258750  64.6578960
  69.8677940   8.5488360  61.8244410  69.4059470   7.7775600  62.1531580
  70.6803490   8.5754430  62.3296860  59.8437600   8.4888070  64.1179060
  60.1465640   7.5985810  63.9389280  60.5881190   9.0458290  63.8901310
  66.0941250  10.8346370  61.4448400  65.4752690  11.2903870  60.8742840
  66.9493030  10.9897830  61.0438100  65.2879500   6.8185360  63.0515440
  65.2187780   5.8775300  62.8904570  66.0499360   6.9086770  63.6238010
  66.9604600   5.7185610  58.8380310  66.3421870   6.1835060  58.2743030
  67.4727850   6.4113090  59.2549820  61.8236360   5.2461480  65.5163910
  61.4905740   5.8730400  66.1584980  62.0003040   5.7723360  64.7365580
  61.0355460   7.2142280  67.3313090  61.6529460   7.8893360  67.0497540
  60.1748580   7.6230260  67.2400590  56.3287800   6.4042140  56.2119940
  55.9515780   6.8929240  55.4804840  56.5860870   7.0767420  56.8426470
  71.9533050   8.6781690  65.2467730  71.2696570   9.3480800  65.2384400
  72.4927340   8.8762340  64.4812590  69.4891790  10.5225820  63.9612910
  69.5018950  10.1188110  63.0935170  68.9367010  11.2973110  63.8574340
  70.7837210   7.2442040  59.0503080  70.6733540   6.3016370  59.1752500
  70.7805460   7.6057680  59.9365840  68.8877230   5.4255660  65.2895520
  69.3046020   5.2115770  64.4548980  69.6117050   5.6828450  65.8604140
  66.3257490   2.8707360  58.4065570  65.3986770   2.8044740  58.6354040
  66.4782310   3.8087490  58.2920810  72.8339330   3.8242880  65.3811760
  72.0057960   3.8935970  64.9061890  73.4289810   4.4097190  64.9127590
  70.3554780   4.4327660  58.9100820  69.7367200   4.0947210  58.2627120
  70.3379230   3.7887420  59.6180010  61.9314130   3.3972100  61.1885300
  61.5271130   2.6849350  60.6931200  62.0177250   3.0525340  62.0773340
  62.3995830   7.0839660  63.3524510  62.1024120   6.4785130  62.6732290
  63.3495650   7.1216970  63.2413870  70.4881440  10.6571530  67.0147610
  70.0112000  11.4643720  66.8220220  69.8043230  10.0049860  67.1673820
  68.5319480   3.6714470  55.9173570  68.9712760   2.8336900  55.7711390
  69.2447900   4.3043870  56.0037710  66.6414860   8.6110540  59.8854810
  67.0810770   9.3534870  59.4710200  66.5801750   8.8537110  60.8093770
  58.6318760   2.2917080  58.6891950  58.5116360   3.0179170  58.0773220
  58.3219650   1.5219990  58.2119860  56.2704130   5.4632220  64.4960590
  56.3484550   5.5980990  63.5516310  56.8845810   4.7548110  64.6888710
  57.5151760   7.1632410  60.9066770  57.1079840   7.3047000  60.0520370
  58.4064770   6.8792570  60.7037980  69.3085040  11.5979660  57.2417820
  69.1486180  11.3082600  58.1399650  69.1431750  10.8219790  56.7063050
  61.7873420  11.3778190  59.0189440  61.6115900  10.4613730  58.8057240
  60.9329160  11.7365480  59.2587240  69.0111170   9.1067220  55.8015820
  68.3176330   9.1044510  55.1418100  69.7534030   8.6826540  55.3709990
  68.5761100  10.7329930  59.8764310  69.0318050   9.9519310  60.1902930
  68.9153620  11.4436750  60.4205490  56.3263650   6.5046390  67.0355050
  56.4894690   6.0351750  66.2174420  56.7916100   5.9969950  67.7003890
  62.8233450   1.9785800  55.3184130  62.2550350   1.5304050  54.6920040
  63.5322450   2.3378580  54.7849280  64.0499770   2.7274360  64.6759480
  64.4169900   2.2532930  65.4220820  63.8604830   3.6015930  65.0167820
  61.8399140   1.7683000  66.9943690  61.5356210   2.6474980  67.2194050
  62.7945600   1.8282790  67.0301130  60.3680930   5.9743990  57.5910540
  59.5943190   5.4341610  57.4309260  61.0975560   5.4550600  57.2528300
  71.1268910   4.9709350  63.3836930  71.8468030   5.4664640  62.9933040
  70.9250730   4.2927240  62.7390800  60.4118330   5.6424370  61.2289350
  60.9297000   4.8392630  61.1746240  59.9602350   5.5803510  62.0706180
  65.2987830   6.9090650  56.5016650  65.6403530   7.6532880  56.0059970
  64.4700540   7.2221770  56.8641480  71.5741510   2.0478800  55.2908340
  71.4905230   2.4793020  54.4404780  72.2935700   2.5077150  55.7235160
  72.6028760   8.9021060  58.0190470  71.9604920   8.2476680  58.2934190
  72.2159420   9.3076150  57.2431140  68.1815240   6.2306490  61.8662160
  68.5339060   5.6334620  61.2063530  67.2977570   5.9050720  62.0370410
  64.2678520   6.9904180  59.2732570  64.9549650   7.5373390  59.6540160
  63.4810940   7.5344910  59.3082180  56.4070920   2.6077000  54.7649650
  57.2765770   2.8901800  55.0485570  55.9161240   3.4212870  54.6498460
  63.5705730   3.9950210  58.8857930  64.0268510   4.8055460  59.1118120
  63.2193940   3.6773350  59.7176420  65.8738340   9.5056550  66.1150230
  66.5180560   9.7115930  66.7923650  66.2367780   8.7444950  65.6621080
  67.1470420   7.5088900  64.8327680  67.7892650   6.8082060  64.9459850
  67.6719770   8.2887340  64.6524570  70.9926140   7.7937520  54.5566820
  70.7663720   7.0767960  55.1491460  70.6022340   7.5449960  53.7188570
  56.7742170  11.8204380  55.3311280  57.1339810  12.4193720  54.6768550
  56.6334510  12.3664270  56.1046310  70.5742390   5.7109460  56.2180980
  70.2864090   6.1722150  57.0058860  71.3694560   5.2507230  56.4865200
  62.7910790   9.2035580  56.1484950  62.7820890   9.9365270  55.5329460
  61.8709150   8.9567160  56.2411910  58.3917430   4.4250470  56.8931710
  57.7845380   5.1649370  56.9027010  58.8666780   4.5149830  56.0669910
  65.7770390   9.2663820  54.8110140  65.8782370   9.0627810  53.8812120
  64.8772130   9.0122100  55.0157920  64.4188500  11.7850140  59.5057810
  64.6730000  11.7471530  58.5837180  63.4700980  11.6583470  59.4986060
  70.4241080   2.7042020  61.0816320  69.4831220   2.7192250  61.2564010
  70.7385150   1.9177980  61.5276620  60.4022720   4.3861620  54.6420280
  61.1685990   4.2742980  55.2045710  60.4797410   3.6899590  53.9897050
  72.4266660   9.8750870  62.7570580  72.5514080  10.6982040  63.2294390
  73.2932220   9.6641600  62.4094730  59.8984190  11.9682080  62.4287710
  60.6346670  11.4197540  62.6996280  60.2825110  12.8338090  62.2893700
  56.7829670   8.0355650  58.3029220  55.8569450   8.2776790  58.2934630
  57.2486100   8.8629910  58.1813970  63.0086500  11.1412390  54.2513280
  63.8015110  11.4301220  53.7995070  62.4890850  10.7104560  53.5725760
  72.0616670  10.3682520  55.6750020  71.7758180   9.9547660  54.8604200
  71.8636220  11.2970230  55.5550540  63.5263900   6.3615800  54.1155630
  63.4214540   5.7468150  54.8417010  63.3588120   5.8381690  53.3318640
  66.7666630   5.4235830  54.7197620  66.2176730   5.8705130  55.3640360
  67.3885890   4.9185080  55.2435290  62.4341750   4.3826750  56.6162920
  62.8558170   4.2166620  57.4594310  62.5592590   3.5726980  56.1218060
  64.9469390   3.4064360  53.8640020  65.4675050   2.6913380  53.4981170
  65.5937790   4.0450230  54.1640530  64.2562460   4.7813240  67.1571020
  64.6750570   5.6245970  66.9847260  63.3371090   4.9185280  66.9277800
  68.9314260   3.0666610  67.1171370  68.4049480   3.5909230  66.5136510
  69.2745600   3.6994000  67.7481100  65.5117420  11.4875970  56.1541760
  66.4068210  11.8260940  56.1760520  65.5435050  10.7655380  55.5266040
  59.1513580   6.8603020  54.3828760  59.5888450   7.4032690  55.0386340
  59.6361310   6.0349970  54.3925100  56.3659380   9.6492050  61.8349020
  56.6962390   8.7813110  61.6027660  56.7950380   9.8550570  62.6653980
  60.9621300   7.9801060  59.4950990  60.6616840   7.8566030  60.3954900
  60.8558790   7.1209650  59.0866720  56.8549590  10.5162640  64.5730650
  56.4180580  10.6963440  65.4054800  57.4227270  11.2737260  64.4312370
  73.7313220   7.7597460  54.1977670  72.9006180   7.8274110  54.6684900
  73.9085050   8.6501580  53.8944530  73.1869680   4.5044940  56.7011870
  73.9488590   5.0741590  56.8071560  73.2024050   3.9372140  57.4720180
  56.6874020   3.0282870  60.9319530  56.0322860   2.7594510  60.2879230
  57.5251970   2.9187350  60.4821510  74.1929650   5.3595040  61.5453800
  74.5638480   4.5762360  61.1389770  74.8331580   6.0484140  61.3671100
  71.1763410   6.7431620  66.9584120  70.3623250   7.1728780  67.2209910
  71.5837610   7.3550030  66.3453170  73.2388850   4.7979310  53.8584390
  73.5137690   5.7058190  53.7303610  73.0499590   4.7341840  54.7946380
  73.1354190   2.7348300  58.8513820  72.7597790   1.9676230  58.4195110
  72.4057310   3.1171000  59.3388750  57.7249950   3.4135440  65.4722870
  58.0922990   3.3262840  66.3518890  57.1560770   2.6501990  65.3729730
  71.2339460  11.4950220  60.4852390  71.8298530  11.1734790  59.8086810
  71.4917610  11.0222040  61.2765660  62.8408060   9.4827720  66.2352740
  62.5999420   9.7502280  65.3483260  63.7810700   9.6533450  66.2903600
  74.1012220  11.5022100  67.0363380  73.6070500  11.8990970  66.3190510
  73.4925510  10.8771310  67.4300660  71.7851670  12.1445520  64.3150120
  71.3254640  12.8961330  63.9408140  71.1564130  11.4251990  64.2564920
  58.6102290   8.2388760  66.7048840  57.8836350   7.6194050  66.6374790
  58.6711440   8.6329370  65.8346920  62.2147390  10.4533760  63.4898250
  62.7312410   9.8421120  62.9646510  62.8644770  10.9562540  63.9809260
  64.9542890  11.3442250  64.3167230  65.2420700  11.0896550  63.4400240
  65.4666110  10.7919610  64.9072800  56.8932290  11.5563150  59.9145600
  56.7254330  10.9233830  60.6127490  56.0266800  11.7622550  59.5639790
  58.4994990  10.2496380  57.3595740  57.9742610  10.6304410  56.6557700
  58.4239570  10.8747150  58.0805450  73.2560310  11.8083920  58.6809680
  73.4312500  11.1221660  58.0370600  72.5581880  12.3330970  58.2886350
  61.0987960  12.1978760  56.2344990  61.8306780  11.9138040  55.6868880
  61.3581630  11.9592040  57.1244370  60.2602750   8.3143490  56.2391320
  59.6311630   8.7828590  56.7877150  60.3750580   7.4692710  56.6737510
  65.8470510   4.1428170  44.2701790  65.0712610   3.6628610  44.5600360
  66.4983440   3.4633820  44.0957950  59.8636340   4.4547980  45.1477550
  59.0321220   4.1996690  45.5474060  60.4717320   4.5258750  45.8835470
  69.8677940   8.5488360  43.0500920  69.4059470   7.7775600  43.3788090
  70.6803490   8.5754430  43.5553370  59.8437600   8.4888070  45.3435570
  60.1465640   7.5985810  45.1645790  60.5881190   9.0458290  45.1157820
  66.0941250  10.8346370  42.6704910  65.4752690  11.2903870  42.0999350
  66.9493030  10.9897830  42.2694610  65.2879500   6.8185360  44.2771950
  65.2187780   5.8775300  44.1161080  66.0499360   6.9086770  44.8494520
  66.9604600   5.7185610  40.0636820  66.3421870   6.1835060  39.4999540
  67.4727850   6.4113090  40.4806330  61.8236360   5.2461480  46.7420420
  61.4905740   5.8730400  47.3841490  62.0003040   5.7723360  45.9622090
  61.0355460   7.2142280  48.5569600  61.6529460   7.8893360  48.2754050
  60.1748580   7.6230260  48.4657100  56.3287800   6.4042140  37.4376450
  55.9515780   6.8929240  36.7061350  56.5860870   7.0767420  38.0682980
  71.9533050   8.6781690  46.4724240  71.2696570   9.3480800  46.4640910
  72.4927340   8.8762340  45.7069100  69.4891790  10.5225820  45.1869420
  69.5018950  10.1188110  44.3191680  68.9367010  11.2973110  45.0830850
  70.7837210   7.2442040  40.2759590  70.6733540   6.3016370  40.4009010
  70.7805460   7.6057680  41.1622350  68.8877230   5.4255660  46.5152030
  69.3046020   5.2115770  45.6805490  69.6117050   5.6828450  47.0860650
  66.3257490   2.8707360  39.6322080  65.3986770   2.8044740  39.8610550
  66.4782310   3.8087490  39.5177320  72.8339330   3.8242880  46.6068270
  72.0057960   3.8935970  46.1318400  73.4289810   4.4097190  46.1384100
  70.3554780   4.4327660  40.1357330  69.7367200   4.0947210  39.4883630
  70.3379230   3.7887420  40.8436520  61.9314130   3.3972100  42.4141810
  61.5271130   2.6849350  41.9187710  62.0177250   3.0525340  43.3029850
  62.3995830   7.0839660  44.5781020  62.1024120   6.4785130  43.8988800
  63.3495650   7.1216970  44.4670380  70.4881440  10.6571530  48.2404120
  70.0112000  11.4643720  48.0476730  69.8043230  10.0049860  48.3930330
  61.4914260   6.8221350  51.2288820  60.5942790   7.0461320  51.4762220
  61.5167130   6.9456290  50.2800220  68.5319480   3.6714470  37.1430080
  68.9712760   2.8336900  36.9967900  69.2447900   4.3043870  37.2294220
  60.3185480   3.6934670  49.8046190  60.1793250   4.5657470  50.1733590
  59.4366840   3.3507480  49.6594130  66.6414860   8.6110540  41.1111320
  67.0810770   9.3534870  40.6966710  66.5801750   8.8537110  42.0350280
  62.1165830   9.6356370  52.0131340  62.0881260  10.0399320  51.1459770
  61.9530800   8.7066730  51.8502940  58.6318760   2.2917080  39.9148460
  58.5116360   3.0179170  39.3029730  58.3219650   1.5219990  39.4376370
  74.0680650  10.4183470  53.3095510  74.5440370  10.8966360  53.9884590
  74.6887810  10.3500960  52.5841010  56.2704130   5.4632220  45.7217100
  56.3484550   5.5980990  44.7772820  56.8845810   4.7548110  45.9145220
  57.5151760   7.1632410  42.1323280  57.1079840   7.3047000  41.2776880
  58.4064770   6.8792570  41.9294490  73.4713900   7.6096320  50.4695520
  73.5976960   7.3708200  49.5512700  73.5135280   6.7780860  50.9417600
  67.3330640  11.3124320  49.0390330  67.8475310  11.2232330  49.8412760
  66.4899720  11.6584020  49.3318240  69.3085040  11.5979660  38.4674330
  69.1486180  11.3082600  39.3656160  69.1431750  10.8219790  37.9319560
  61.7873420  11.3778190  40.2445950  61.6115900  10.4613730  40.0313750
  60.9329160  11.7365480  40.4843750  69.0111170   9.1067220  37.0272330
  68.3176330   9.1044510  36.3674610  69.7534030   8.6826540  36.5966500
  68.5761100  10.7329930  41.1020820  69.0318050   9.9519310  41.4159440
  68.9153620  11.4436750  41.6462000  56.3263650   6.5046390  48.2611560
  56.4894690   6.0351750  47.4430930  56.7916100   5.9969950  48.9260400
  62.8233450   1.9785800  36.5440640  62.2550350   1.5304050  35.9176550
  63.5322450   2.3378580  36.0105790  57.9002630   5.8797820  50.4207370
  57.5157420   5.2391490  51.0190330  58.2114820   6.5833940  50.9902100
  64.0499770   2.7274360  45.9015990  64.4169900   2.2532930  46.6477330
  63.8604830   3.6015930  46.2424330  61.8399140   1.7683000  48.2200200
  61.5356210   2.6474980  48.4450560  62.7945600   1.8282790  48.2557640
  60.3680930   5.9743990  38.8167050  59.5943190   5.4341610  38.6565770
  61.0975560   5.4550600  38.4784810  71.1268910   4.9709350  44.6093440
  71.8468030   5.4664640  44.2189550  70.9250730   4.2927240  43.9647310
  66.5087710   5.0418410  50.4962440  66.4425020   4.1214080  50.2420030
  65.8792850   5.1393850  51.2107080  60.4118330   5.6424370  42.4545860
  60.9297000   4.8392630  42.4002750  59.9602350   5.5803510  43.2962690
  65.2987830   6.9090650  37.7273160  65.6403530   7.6532880  37.2316480
  64.4700540   7.2221770  38.0897990  57.8962870   2.6085740  49.3671560
  57.5377810   3.2739590  49.9544900  57.6017430   1.7769290  49.7384180
  61.0975990   3.0669980  52.2511110  60.7976130   3.2127160  51.3538930
  61.8687230   2.5075270  52.1584500  66.4404440   7.8638980  50.2466240
  66.4548980   6.9319940  50.0285150  65.7329540   7.9498740  50.8856010
  71.5741510   2.0478800  36.5164850  71.4905230   2.4793020  35.6661290
  72.2935700   2.5077150  36.9491670  72.6515650   4.5046320  49.5934820
  71.9263840   5.0975100  49.3964210  73.1791110   4.4969860  48.7948190
  72.6028760   8.9021060  39.2446980  71.9604920   8.2476680  39.5190700
  72.2159420   9.3076150  38.4687650  68.1815240   6.2306490  43.0918670
  68.5339060   5.6334620  42.4320040  67.2977570   5.9050720  43.2626920
  64.2678520   6.9904180  40.4989080  64.9549650   7.5373390  40.8796670
  63.4810940   7.5344910  40.5338690  56.4070920   2.6077000  35.9906160
  57.2765770   2.8901800  36.2742080  55.9161240   3.4212870  35.8754970
  63.5705730   3.9950210  40.1114440  64.0268510   4.8055460  40.3374630
  63.2193940   3.6773350  40.9432930  65.8738340   9.5056550  47.3406740
  66.5180560   9.7115930  48.0180160  66.2367780   8.7444950  46.8877590
  67.1470420   7.5088900  46.0584190  67.7892650   6.8082060  46.1716360
  67.6719770   8.2887340  45.8781080  70.9926140   7.7937520  35.7823330
  70.7663720   7.0767960  36.3747970  70.6022340   7.5449960  34.9445080
  68.9208040   8.3083800  49.2620250  69.2564280   8.8950490  49.9398170
  68.0008380   8.1776510  49.4918040  56.7742170  11.8204380  36.5567790
  57.1339810  12.4193720  35.9025060  56.6334510  12.3664270  37.3302820
  70.5742390   5.7109460  37.4437490  70.2864090   6.1722150  38.2315370
  71.3694560   5.2507230  37.7121710  56.7584030  10.0859240  51.0310190
  56.8675150   9.1453980  50.8905580  56.1064590  10.3513990  50.3823920
  64.7496620   8.3575130  52.4308310  64.4293490   7.6384370  52.9754000
  64.0754980   9.0330200  52.5044370  62.7910790   9.2035580  37.3741460
  62.7820890   9.9365270  36.7585970  61.8709150   8.9567160  37.4668420
  58.3917430   4.4250470  38.1188220  57.7845380   5.1649370  38.1283520
  58.8666780   4.5149830  37.2926420  65.7770390   9.2663820  36.0366650
  65.8782370   9.0627810  35.1068630  64.8772130   9.0122100  36.2414430
  64.4188500  11.7850140  40.7314320  64.6730000  11.7471530  39.8093690
  63.4700980  11.6583470  40.7242570  70.4241080   2.7042020  42.3072830
  69.4831220   2.7192250  42.4820520  70.7385150   1.9177980  42.7533130
  60.4022720   4.3861620  35.8676790  61.1685990   4.2742980  36.4302220
  60.4797410   3.6899590  35.2153560  72.4266660   9.8750870  43.9827090
  72.5514080  10.6982040  44.4550900  73.2932220   9.6641600  43.6351240
  59.8984190  11.9682080  43.6544220  60.6346670  11.4197540  43.9252790
  60.2825110  12.8338090  43.5150210  56.7829670   8.0355650  39.5285730
  55.8569450   8.2776790  39.5191140  57.2486100   8.8629910  39.4070480
  58.9042470  11.1528150  52.8429800  59.7055200  11.4740200  53.2565200
  58.3894290  10.7923730  53.5649710  63.0086500  11.1412390  35.4769790
  63.8015110  11.4301220  35.0251580  62.4890850  10.7104560  34.7982270
  67.7407100   7.2608020  52.7905210  67.1345260   7.2839620  52.0500960
  67.4361210   6.5291060  53.3272460  69.1707470  10.9888310  51.4014620
  70.1229220  10.9046330  51.3514860  69.0235690  11.6530020  52.0748410
  72.0616670  10.3682520  36.9006530  71.7758180   9.9547660  36.0860710
  71.8636220  11.2970230  36.7807050  56.6240280   3.6401610  51.7865850
  57.1279300   3.0608890  52.3582080  55.8847700   3.9241840  52.3242220
  63.5263900   6.3615800  35.3412140  63.4214540   5.7468150  36.0673520
  63.3588120   5.8381690  34.5575150  63.6778220   5.0472600  51.3201370
  62.9123890   5.6157600  51.2356040  63.8594180   4.7548810  50.4269600
  66.7666630   5.4235830  35.9454130  66.2176730   5.8705130  36.5896870
  67.3885890   4.9185080  36.4691800  70.8201570   6.7777930  51.8776390
  71.5611040   7.1153690  51.3743850  70.0574250   6.9469990  51.3246160
  58.6563360   1.7831200  52.6815920  58.6968700   1.4845070  53.5901150
  59.5108860   2.1838810  52.5223440  62.4341750   4.3826750  37.8419430
  62.8558170   4.2166620  38.6850820  62.5592590   3.5726980  37.3474570
  64.9469390   3.4064360  35.0896530  65.4675050   2.6913380  34.7237680
  65.5937790   4.0450230  35.3897040  69.4947230   4.8292760  50.4131600
  69.9088250   4.9837840  51.2622020  68.5598230   4.9547980  50.5757380
  64.2562460   4.7813240  48.3827530  64.6750570   5.6245970  48.2103770
  63.3371090   4.9185280  48.1534310  66.5926360   2.5129420  49.7665370
  66.7122570   1.9170560  50.5060210  67.4520360   2.5499110  49.3466670
  68.9314260   3.0666610  48.3427880  68.4049480   3.5909230  47.7393020
  69.2745600   3.6994000  48.9737610  62.1069880  11.0866250  49.4985260
  61.5690970  11.8112310  49.1793960  62.3603840  10.6096590  48.7082600
  64.9632090  12.3217460  49.7571910  64.8890790  13.2252600  50.0644280
  64.0610930  12.0029360  49.7293980  65.5117420  11.4875970  37.3798270
  66.4068210  11.8260940  37.4017030  65.5435050  10.7655380  36.7522550
  59.1513580   6.8603020  35.6085270  59.5888450   7.4032690  36.2642850
  59.6361310   6.0349970  35.6181610  56.3659380   9.6492050  43.0605530
  56.6962390   8.7813110  42.8284170  56.7950380   9.8550570  43.8910490
  60.9621300   7.9801060  40.7207500  60.6616840   7.8566030  41.6211410
  60.8558790   7.1209650  40.3123230  56.8549590  10.5162640  45.7987160
  56.4180580  10.6963440  46.6311310  57.4227270  11.2737260  45.6568880
  72.4911770  10.0179640  50.0864470  71.8913760  10.0772200  49.3428390
  72.6205670   9.0784620  50.2161320  73.7313220   7.7597460  35.4234180
  72.9006180   7.8274110  35.8941410  73.9085050   8.6501580  35.1201040
  73.1869680   4.5044940  37.9268380  73.9488590   5.0741590  38.0328070
  73.2024050   3.9372140  38.6976690  56.6874020   3.0282870  42.1576040
  56.0322860   2.7594510  41.5135740  57.5251970   2.9187350  41.7078020
  74.1929650   5.3595040  42.7710310  74.5638480   4.5762360  42.3646280
  74.8331580   6.0484140  42.5927610  71.1763410   6.7431620  48.1840630
  70.3623250   7.1728780  48.4466420  71.5837610   7.3550030  47.5709680
  73.2388850   4.7979310  35.0840900  73.5137690   5.7058190  34.9560120
  73.0499590   4.7341840  36.0202890  73.1354190   2.7348300  40.0770330
  72.7597790   1.9676230  39.6451620  72.4057310   3.1171000  40.5645260
  57.7249950   3.4135440  46.6979380  58.0922990   3.3262840  47.5775400
  57.1560770   2.6501990  46.5986240  72.5253810   1.8819820  49.7109850
  72.2939900   1.6532570  48.8107800  72.7858360   2.8019370  49.6654740
  71.2339460  11.4950220  41.7108900  71.8298530  11.1734790  41.0343320
  71.4917610  11.0222040  42.5022170  59.1402030   7.9268130  51.8599530
  59.0971660   7.5561040  52.7413990  59.2713040   8.8645700  52.0001350
  62.8408060   9.4827720  47.4609250  62.5999420   9.7502280  46.5739770
  63.7810700   9.6533450  47.5160110  74.1012220  11.5022100  48.2619890
  73.6070500  11.8990970  47.5447020  73.4925510  10.8771310  48.6557170
  58.9790060  10.8730380  48.9797310  58.3850380  10.7415080  49.7187350
  58.9713900  10.0368520  48.5139410  71.7851670  12.1445520  45.5406630
  71.3254640  12.8961330  45.1664650  71.1564130  11.4251990  45.4821430
  58.6102290   8.2388760  47.9305350  57.8836350   7.6194050  47.8631300
  58.6711440   8.6329370  47.0603430  62.2147390  10.4533760  44.7154760
  62.7312410   9.8421120  44.1903020  62.8644770  10.9562540  45.2065770
  64.9542890  11.3442250  45.5423740  65.2420700  11.0896550  44.6656750
  65.4666110  10.7919610  46.1329310  56.8932290  11.5563150  41.1402110
  56.7254330  10.9233830  41.8384000  56.0266800  11.7622550  40.7896300
  58.4994990  10.2496380  38.5852250  57.9742610  10.6304410  37.8814210
  58.4239570  10.8747150  39.3061960  65.0215250  12.2658350  52.9091940
  65.9482560  12.0302620  52.9527900  65.0065680  13.0930350  52.4277970
  73.2560310  11.8083920  39.9066190  73.4312500  11.1221660  39.2627110
  72.5581880  12.3330970  39.5142860  61.0987960  12.1978760  37.4601500
  61.8306780  11.9138040  36.9125390  61.3581630  11.9592040  38.3500880
  60.2602750   8.3143490  37.4647830  59.6311630   8.7828590  38.0133660
  60.3750580   7.4692710  37.8994020  71.5892810  11.4928210  52.7332980
  72.3818130  10.9977440  52.5258940  71.8825960  12.1718350  53.3408590
  65.8470510   4.1428170  25.4958300  65.0712610   3.6628610  25.7856870
  66.4983440   3.4633820  25.3214460  59.8636340   4.4547980  26.3734060
  59.0321220   4.1996690  26.7730570  60.4717320   4.5258750  27.1091980
  69.8677940   8.5488360  24.2757430  69.4059470   7.7775600  24.6044600
  70.6803490   8.5754430  24.7809880  59.8437600   8.4888070  26.5692080
  60.1465640   7.5985810  26.3902300  60.5881190   9.0458290  26.3414330
  66.0941250  10.8346370  23.8961420  65.4752690  11.2903870  23.3255860
  66.9493030  10.9897830  23.4951120  65.2879500   6.8185360  25.5028460
  65.2187780   5.8775300  25.3417590  66.0499360   6.9086770  26.0751030
  66.9604600   5.7185610  21.2893330  66.3421870   6.1835060  20.7256050
  67.4727850   6.4113090  21.7062840  61.8236360   5.2461480  27.9676930
  61.4905740   5.8730400  28.6098000  62.0003040   5.7723360  27.1878600
  61.0355460   7.2142280  29.7826110  61.6529460   7.8893360  29.5010560
  60.1748580   7.6230260  29.6913610  56.3287800   6.4042140  18.6632960
  55.9515780   6.8929240  17.9317860  56.5860870   7.0767420  19.2939490
  71.9533050   8.6781690  27.6980750  71.2696570   9.3480800  27.6897420
  72.4927340   8.8762340  26.9325610  69.4891790  10.5225820  26.4125930
  69.5018950  10.1188110  25.5448190  68.9367010  11.2973110  26.3087360
  70.7837210   7.2442040  21.5016100  70.6733540   6.3016370  21.6265520
  70.7805460   7.6057680  22.3878860  68.8877230   5.4255660  27.7408540
  69.3046020   5.2115770  26.9062000  69.6117050   5.6828450  28.3117160
  66.3257490   2.8707360  20.8578590  65.3986770   2.8044740  21.0867060
  66.4782310   3.8087490  20.7433830  72.8339330   3.8242880  27.8324780
  72.0057960   3.8935970  27.3574910  73.4289810   4.4097190  27.3640610
  70.3554780   4.4327660  21.3613840  69.7367200   4.0947210  20.7140140
  70.3379230   3.7887420  22.0693030  61.9314130   3.3972100  23.6398320
  61.5271130   2.6849350  23.1444220  62.0177250   3.0525340  24.5286360
  62.3995830   7.0839660  25.8037530  62.1024120   6.4785130  25.1245310
  63.3495650   7.1216970  25.6926890  70.4881440  10.6571530  29.4660630
  70.0112000  11.4643720  29.2733240  69.8043230  10.0049860  29.6186840
  61.4914260   6.8221350  32.4545330  60.5942790   7.0461320  32.7018730
  61.5167130   6.9456290  31.5056730  68.5319480   3.6714470  18.3686590
  68.9712760   2.8336900  18.2224410  69.2447900   4.3043870  18.4550730
  60.3185480   3.6934670  31.0302700  60.1793250   4.5657470  31.3990100
  59.4366840   3.3507480  30.8850640  66.6414860   8.6110540  22.3367830
  67.0810770   9.3534870  21.9223220  66.5801750   8.8537110  23.2606790
  62.1165830   9.6356370  33.2387850  62.0881260  10.0399320  32.3716280
  61.9530800   8.7066730  33.0759450  58.6318760   2.2917080  21.1404970
  58.5116360   3.0179170  20.5286240  58.3219650   1.5219990  20.6632880
  74.0680650  10.4183470  34.5352020  74.5440370  10.8966360  35.2141100
  74.6887810  10.3500960  33.8097520  56.2704130   5.4632220  26.9473610
  56.3484550   5.5980990  26.0029330  56.8845810   4.7548110  27.1401730
  57.5151760   7.1632410  23.3579790  57.1079840   7.3047000  22.5033390
  58.4064770   6.8792570  23.1551000  73.4713900   7.6096320  31.6952030
  73.5976960   7.3708200  30.7769210  73.5135280   6.7780860  32.1674110
  67.3330640  11.3124320  30.2646840  67.8475310  11.2232330  31.0669270
  66.4899720  11.6584020  30.5574750  69.3085040  11.5979660  19.6930840
  69.1486180  11.3082600  20.5912670  69.1431750  10.8219790  19.1576070
  61.7873420  11.3778190  21.4702460  61.6115900  10.4613730  21.2570260
  60.9329160  11.7365480  21.7100260  69.0111170   9.1067220  18.2528840
  68.3176330   9.1044510  17.5931120  69.7534030   8.6826540  17.8223010
  68.5761100  10.7329930  22.3277330  69.0318050   9.9519310  22.6415950
  68.9153620  11.4436750  22.8718510  56.3263650   6.5046390  29.4868070
  56.4894690   6.0351750  28.6687440  56.7916100   5.9969950  30.1516910
  62.8233450   1.9785800  17.7697150  62.2550350   1.5304050  17.1433060
  63.5322450   2.3378580  17.2362300  57.9002630   5.8797820  31.6463880
  57.5157420   5.2391490  32.2446840  58.2114820   6.5833940  32.2158610
  64.0499770   2.7274360  27.1272500  64.4169900   2.2532930  27.8733840
  63.8604830   3.6015930  27.4680840  61.8399140   1.7683000  29.4456710
  61.5356210   2.6474980  29.6707070  62.7945600   1.8282790  29.4814150
  60.3680930   5.9743990  20.0423560  59.5943190   5.4341610  19.8822280
  61.0975560   5.4550600  19.7041320  71.1268910   4.9709350  25.8349950
  71.8468030   5.4664640  25.4446060  70.9250730   4.2927240  25.1903820
  66.5087710   5.0418410  31.7218950  66.4425020   4.1214080  31.4676540
  65.8792850   5.1393850  32.4363590  60.4118330   5.6424370  23.6802370
  60.9297000   4.8392630  23.6259260  59.9602350   5.5803510  24.5219200
  65.2987830   6.9090650  18.9529670  65.6403530   7.6532880  18.4572990
  64.4700540   7.2221770  19.3154500  57.8962870   2.6085740  30.5928070
  57.5377810   3.2739590  31.1801410  57.6017430   1.7769290  30.9640690
  61.0975990   3.0669980  33.4767620  60.7976130   3.2127160  32.5795440
  61.8687230   2.5075270  33.3841010  66.4404440   7.8638980  31.4722750
  66.4548980   6.9319940  31.2541660  65.7329540   7.9498740  32.1112520
  71.5741510   2.0478800  17.7421360  71.4905230   2.4793020  16.8917800
  72.2935700   2.5077150  18.1748180  72.6515650   4.5046320  30.8191330
  71.9263840   5.0975100  30.6220720  73.1791110   4.4969860  30.0204700
  72.6028760   8.9021060  20.4703490  71.9604920   8.2476680  20.7447210
  72.2159420   9.3076150  19.6944160  68.1815240   6.2306490  24.3175180
  68.5339060   5.6334620  23.6576550  67.2977570   5.9050720  24.4883430
  64.2678520   6.9904180  21.7245590  64.9549650   7.5373390  22.1053180
  63.4810940   7.5344910  21.7595200  56.4070920   2.6077000  17.2162670
  57.2765770   2.8901800  17.4998590  55.9161240   3.4212870  17.1011480
  63.5705730   3.9950210  21.3370950  64.0268510   4.8055460  21.5631140
  63.2193940   3.6773350  22.1689440  65.8738340   9.5056550  28.5663250
  66.5180560   9.7115930  29.2436670  66.2367780   8.7444950  28.1134100
  67.1470420   7.5088900  27.2840700  67.7892650   6.8082060  27.3972870
  67.6719770   8.2887340  27.1037590  70.9926140   7.7937520  17.0079840
  70.7663720   7.0767960  17.6004480  70.6022340   7.5449960  16.1701590
  68.9208040   8.3083800  30.4876760  69.2564280   8.8950490  31.1654680
  68.0008380   8.1776510  30.7174550  56.7742170  11.8204380  17.7824300
  57.1339810  12.4193720  17.1281570  56.6334510  12.3664270  18.5559330
  70.5742390   5.7109460  18.6694000  70.2864090   6.1722150  19.4571880
  71.3694560   5.2507230  18.9378220  56.7584030  10.0859240  32.2566700
  56.8675150   9.1453980  32.1162090  56.1064590  10.3513990  31.6080430
  64.7496620   8.3575130  33.6564820  64.4293490   7.6384370  34.2010510
  64.0754980   9.0330200  33.7300880  62.7910790   9.2035580  18.5997970
  62.7820890   9.9365270  17.9842480  61.8709150   8.9567160  18.6924930
  58.3917430   4.4250470  19.3444730  57.7845380   5.1649370  19.3540030
  58.8666780   4.5149830  18.5182930  65.7770390   9.2663820  17.2623160
  65.8782370   9.0627810  16.3325140  64.8772130   9.0122100  17.4670940
  64.4188500  11.7850140  21.9570830  64.6730000  11.7471530  21.0350200
  63.4700980  11.6583470  21.9499080  70.4241080   2.7042020  23.5329340
  69.4831220   2.7192250  23.7077030  70.7385150   1.9177980  23.9789640
  60.4022720   4.3861620  17.0933300  61.1685990   4.2742980  17.6558730
  60.4797410   3.6899590  16.4410070  72.4266660   9.8750870  25.2083600
  72.5514080  10.6982040  25.6807410  73.2932220   9.6641600  24.8607750
  59.8984190  11.9682080  24.8800730  60.6346670  11.4197540  25.1509300
  60.2825110  12.8338090  24.7406720  56.7829670   8.0355650  20.7542240
  55.8569450   8.2776790  20.7447650  57.2486100   8.8629910  20.6326990
  58.9042470  11.1528150  34.0686310  59.7055200  11.4740200  34.4821710
  58.3894290  10.7923730  34.7906220  63.0086500  11.1412390  16.7026300
  63.8015110  11.4301220  16.2508090  62.4890850  10.7104560  16.0238780
  67.7407100   7.2608020  34.0161720  67.1345260   7.2839620  33.2757470
  67.4361210   6.5291060  34.5528970  69.1707470  10.9888310  32.6271130
  70.1229220  10.9046330  32.5771370  69.0235690  11.6530020  33.3004920
  72.0616670  10.3682520  18.1263040  71.7758180   9.9547660  17.3117220
  71.8636220  11.2970230  18.0063560  56.6240280   3.6401610  33.0122360
  57.1279300   3.0608890  33.5838590  55.8847700   3.9241840  33.5498730
  63.5263900   6.3615800  16.5668650  63.4214540   5.7468150  17.2930030
  63.3588120   5.8381690  15.7831660  63.6778220   5.0472600  32.5457880
  62.9123890   5.6157600  32.4612550  63.8594180   4.7548810  31.6526110
  66.7666630   5.4235830  17.1710640  66.2176730   5.8705130  17.8153380
  67.3885890   4.9185080  17.6948310  70.8201570   6.7777930  33.1032900
  71.5611040   7.1153690  32.6000360  70.0574250   6.9469990  32.5502670
  58.6563360   1.7831200  33.9072430  58.6968700   1.4845070  34.8157660
  59.5108860   2.1838810  33.7479950  62.4341750   4.3826750  19.0675940
  62.8558170   4.2166620  19.9107330  62.5592590   3.5726980  18.5731080
  64.9469390   3.4064360  16.3153040  65.4675050   2.6913380  15.9494190
  65.5937790   4.0450230  16.6153550  69.4947230   4.8292760  31.6388110
  69.9088250   4.9837840  32.4878530  68.5598230   4.9547980  31.8013890
  64.2562460   4.7813240  29.6084040  64.6750570   5.6245970  29.4360280
  63.3371090   4.9185280  29.3790820  66.5926360   2.5129420  30.9921880
  66.7122570   1.9170560  31.7316720  67.4520360   2.5499110  30.5723180
  68.9314260   3.0666610  29.5684390  68.4049480   3.5909230  28.9649530
  69.2745600   3.6994000  30.1994120  62.1069880  11.0866250  30.7241770
  61.5690970  11.8112310  30.4050470  62.3603840  10.6096590  29.9339110
  64.9632090  12.3217460  30.9828420  64.8890790  13.2252600  31.2900790
  64.0610930  12.0029360  30.9550490  65.5117420  11.4875970  18.6054780
  66.4068210  11.8260940  18.6273540  65.5435050  10.7655380  17.9779060
  59.1513580   6.8603020  16.8341780  59.5888450   7.4032690  17.4899360
  59.6361310   6.0349970  16.8438120  56.3659380   9.6492050  24.2862040
  56.6962390   8.7813110  24.0540680  56.7950380   9.8550570  25.1167000
  60.9621300   7.9801060  21.9464010  60.6616840   7.8566030  22.8467920
  60.8558790   7.1209650  21.5379740  56.8549590  10.5162640  27.0243670
  56.4180580  10.6963440  27.8567820  57.4227270  11.2737260  26.8825390
  72.4911770  10.0179640  31.3120980  71.8913760  10.0772200  30.5684900
  72.6205670   9.0784620  31.4417830  73.7313220   7.7597460  16.6490690
  72.9006180   7.8274110  17.1197920  73.9085050   8.6501580  16.3457550
  73.1869680   4.5044940  19.1524890  73.9488590   5.0741590  19.2584580
  73.2024050   3.9372140  19.9233200  56.6874020   3.0282870  23.3832550
  56.0322860   2.7594510  22.7392250  57.5251970   2.9187350  22.9334530
  74.1929650   5.3595040  23.9966820  74.5638480   4.5762360  23.5902790
  74.8331580   6.0484140  23.8184120  71.1763410   6.7431620  29.4097140
  70.3623250   7.1728780  29.6722930  71.5837610   7.3550030  28.7966190
  73.2388850   4.7979310  16.3097410  73.5137690   5.7058190  16.1816630
  73.0499590   4.7341840  17.2459400  73.1354190   2.7348300  21.3026840
  72.7597790   1.9676230  20.8708130  72.4057310   3.1171000  21.7901770
  57.7249950   3.4135440  27.9235890  58.0922990   3.3262840  28.8031910
  57.1560770   2.6501990  27.8242750  72.5253810   1.8819820  30.9366360
  72.2939900   1.6532570  30.0364310  72.7858360   2.8019370  30.8911250
  71.2339460  11.4950220  22.9365410  71.8298530  11.1734790  22.2599830
  71.4917610  11.0222040  23.7278680  59.1402030   7.9268130  33.0856040
  59.0971660   7.5561040  33.9670500  59.2713040   8.8645700  33.2257860
  62.8408060   9.4827720  28.6865760  62.5999420   9.7502280  27.7996280
  63.7810700   9.6533450  28.7416620  74.1012220  11.5022100  29.4876400
  73.6070500  11.8990970  28.7703530  73.4925510  10.8771310  29.8813680
  58.9790060  10.8730380  30.2053820  58.3850380  10.7415080  30.9443860
  58.9713900  10.0368520  29.7395920  71.7851670  12.1445520  26.7663140
  71.3254640  12.8961330  26.3921160  71.1564130  11.4251990  26.7077940
  58.6102290   8.2388760  29.1561860  57.8836350   7.6194050  29.0887810
  58.6711440   8.6329370  28.2859940  62.2147390  10.4533760  25.9411270
  62.7312410   9.8421120  25.4159530  62.8644770  10.9562540  26.4322280
  64.9542890  11.3442250  26.7680250  65.2420700  11.0896550  25.8913260
  65.4666110  10.7919610  27.3585820  56.8932290  11.5563150  22.3658620
  56.7254330  10.9233830  23.0640510  56.0266800  11.7622550  22.0152810
  58.4994990  10.2496380  19.8108760  57.9742610  10.6304410  19.1070720
  58.4239570  10.8747150  20.5318470  65.0215250  12.2658350  34.1348450
  65.9482560  12.0302620  34.1784410  65.0065680  13.0930350  33.6534480
  73.2560310  11.8083920  21.1322700  73.4312500  11.1221660  20.4883620
  72.5581880  12.3330970  20.7399370  61.0987960  12.1978760  18.6858010
  61.8306780  11.9138040  18.1381900  61.3581630  11.9592040  19.5757390
  60.2602750   8.3143490  18.6904340  59.6311630   8.7828590  19.2390170
  60.3750580   7.4692710  19.1250530  71.5892810  11.4928210  33.9589490
  72.3818130  10.9977440  33.7515450  71.8825960  12.1718350  34.5665100
  65.8470510   4.1428170   6.7214810  65.0712610   3.6628610   7.0113380
  66.4983440   3.4633820   6.5470970  59.8636340   4.4547980   7.5990570
  59.0321220   4.1996690   7.9987080  60.4717320   4.5258750   8.3348490
  69.8677940   8.5488360   5.5013940  69.4059470   7.7775600   5.8301110
  70.6803490   8.5754430   6.0066390  59.8437600   8.4888070   7.7948590
  60.1465640   7.5985810   7.6158810  60.5881190   9.0458290   7.5670840
  66.0941250  10.8346370   5.1217930  65.4752690  11.2903870   4.5512370
  66.9493030  10.9897830   4.7207630  65.2879500   6.8185360   6.7284970
  65.2187780   5.8775300   6.5674100  66.0499360   6.9086770   7.3007540
  66.9604600   5.7185610   2.5149840  66.3421870   6.1835060   1.9512560
  67.4727850   6.4113090   2.9319350  61.8236360   5.2461480   9.1933440
  61.4905740   5.8730400   9.8354510  62.0003040   5.7723360   8.4135110
  61.0355460   7.2142280  11.0082620  61.6529460   7.8893360  10.7267070
  60.1748580   7.6230260  10.9170120  71.9533050   8.6781690   8.9237260
  71.2696570   9.3480800   8.9153930  72.4927340   8.8762340   8.1582120
  69.4891790  10.5225820   7.6382440  69.5018950  10.1188110   6.7704700
  68.9367010  11.2973110   7.5343870  70.7837210   7.2442040   2.7272610
  70.6733540   6.3016370   2.8522030  70.7805460   7.6057680   3.6135370
  68.8877230   5.4255660   8.9665050  69.3046020   5.2115770   8.1318510
  69.6117050   5.6828450   9.5373670  66.3257490   2.8707360   2.0835100
  65.3986770   2.8044740   2.3123570  66.4782310   3.8087490   1.9690340
  72.8339330   3.8242880   9.0581290  72.0057960   3.8935970   8.5831420
  73.4289810   4.4097190   8.5897120  70.3554780   4.4327660   2.5870350
  69.7367200   4.0947210   1.9396650  70.3379230   3.7887420   3.2949540
  61.9314130   3.3972100   4.8654830  61.5271130   2.6849350   4.3700730
  62.0177250   3.0525340   5.7542870  62.3995830   7.0839660   7.0294040
  62.1024120   6.4785130   6.3501820  63.3495650   7.1216970   6.9183400
  70.4881440  10.6571530  10.6917140  70.0112000  11.4643720  10.4989750
  69.8043230  10.0049860  10.8443350  61.4914260   6.8221350  13.6801840
  60.5942790   7.0461320  13.9275240  61.5167130   6.9456290  12.7313240
  60.3185480   3.6934670  12.2559210  60.1793250   4.5657470  12.6246610
  59.4366840   3.3507480  12.1107150  66.6414860   8.6110540   3.5624340
  67.0810770   9.3534870   3.1479730  66.5801750   8.8537110   4.4863300
  62.1165830   9.6356370  14.4644360  62.0881260  10.0399320  13.5972790
  61.9530800   8.7066730  14.3015960  58.6318760   2.2917080   2.3661480
  58.5116360   3.0179170   1.7542750  58.3219650   1.5219990   1.8889390
  74.0680650  10.4183470  15.7608530  74.5440370  10.8966360  16.4397610
  74.6887810  10.3500960  15.0354030  56.2704130   5.4632220   8.1730120
  56.3484550   5.5980990   7.2285840  56.8845810   4.7548110   8.3658240
  57.5151760   7.1632410   4.5836300  57.1079840   7.3047000   3.7289900
  58.4064770   6.8792570   4.3807510  73.4713900   7.6096320  12.9208540
  73.5976960   7.3708200  12.0025720  73.5135280   6.7780860  13.3930620
  67.3330640  11.3124320  11.4903350  67.8475310  11.2232330  12.2925780
  66.4899720  11.6584020  11.7831260  61.7873420  11.3778190   2.6958970
  61.6115900  10.4613730   2.4826770  60.9329160  11.7365480   2.9356770
  68.5761100  10.7329930   3.5533840  69.0318050   9.9519310   3.8672460
  68.9153620  11.4436750   4.0975020  56.3263650   6.5046390  10.7124580
  56.4894690   6.0351750   9.8943950  56.7916100   5.9969950  11.3773420
  57.9002630   5.8797820  12.8720390  57.5157420   5.2391490  13.4703350
  58.2114820   6.5833940  13.4415120  64.0499770   2.7274360   8.3529010
  64.4169900   2.2532930   9.0990350  63.8604830   3.6015930   8.6937350
  61.8399140   1.7683000  10.6713220  61.5356210   2.6474980  10.8963580
  62.7945600   1.8282790  10.7070660  71.1268910   4.9709350   7.0606460
  71.8468030   5.4664640   6.6702570  70.9250730   4.2927240   6.4160330
  66.5087710   5.0418410  12.9475460  66.4425020   4.1214080  12.6933050
  65.8792850   5.1393850  13.6620100  60.4118330   5.6424370   4.9058880
  60.9297000   4.8392630   4.8515770  59.9602350   5.5803510   5.7475710
  57.8962870   2.6085740  11.8184580  57.5377810   3.2739590  12.4057920
  57.6017430   1.7769290  12.1897200  61.0975990   3.0669980  14.7024130
  60.7976130   3.2127160  13.8051950  61.8687230   2.5075270  14.6097520
  66.4404440   7.8638980  12.6979260  66.4548980   6.9319940  12.4798170
  65.7329540   7.9498740  13.3369030  72.6515650   4.5046320  12.0447840
  71.9263840   5.0975100  11.8477230  73.1791110   4.4969860  11.2461210
  68.1815240   6.2306490   5.5431690  68.5339060   5.6334620   4.8833060
  67.2977570   5.9050720   5.7139940  64.2678520   6.9904180   2.9502100
  64.9549650   7.5373390   3.3309690  63.4810940   7.5344910   2.9851710
  63.5705730   3.9950210   2.5627460  64.0268510   4.8055460   2.7887650
  63.2193940   3.6773350   3.3945950  65.8738340   9.5056550   9.7919760
  66.5180560   9.7115930  10.4693180  66.2367780   8.7444950   9.3390610
  67.1470420   7.5088900   8.5097210  67.7892650   6.8082060   8.6229380
  67.6719770   8.2887340   8.3294100  68.9208040   8.3083800  11.7133270
  69.2564280   8.8950490  12.3911190  68.0008380   8.1776510  11.9431060
  56.7584030  10.0859240  13.4823210  56.8675150   9.1453980  13.3418600
  56.1064590  10.3513990  12.8336940  64.7496620   8.3575130  14.8821330
  64.4293490   7.6384370  15.4267020  64.0754980   9.0330200  14.9557390
  64.4188500  11.7850140   3.1827340  64.6730000  11.7471530   2.2606710
  63.4700980  11.6583470   3.1755590  70.4241080   2.7042020   4.7585850
  69.4831220   2.7192250   4.9333540  70.7385150   1.9177980   5.2046150
  72.4266660   9.8750870   6.4340110  72.5514080  10.6982040   6.9063920
  73.2932220   9.6641600   6.0864260  59.8984190  11.9682080   6.1057240
  60.6346670  11.4197540   6.3765810  60.2825110  12.8338090   5.9663230
  56.7829670   8.0355650   1.9798750  55.8569450   8.2776790   1.9704160
  57.2486100   8.8629910   1.8583500  58.9042470  11.1528150  15.2942820
  59.7055200  11.4740200  15.7078220  58.3894290  10.7923730  16.0162730
  67.7407100   7.2608020  15.2418230  67.1345260   7.2839620  14.5013980
  67.4361210   6.5291060  15.7785480  69.1707470  10.9888310  13.8527640
  70.1229220  10.9046330  13.8027880  69.0235690  11.6530020  14.5261430
  56.6240280   3.6401610  14.2378870  57.1279300   3.0608890  14.8095100
  55.8847700   3.9241840  14.7755240  63.6778220   5.0472600  13.7714390
  62.9123890   5.6157600  13.6869060  63.8594180   4.7548810  12.8782620
  70.8201570   6.7777930  14.3289410  71.5611040   7.1153690  13.8256870
  70.0574250   6.9469990  13.7759180  58.6563360   1.7831200  15.1328940
  58.6968700   1.4845070  16.0414170  59.5108860   2.1838810  14.9736460
  69.4947230   4.8292760  12.8644620  69.9088250   4.9837840  13.7135040
  68.5598230   4.9547980  13.0270400  64.2562460   4.7813240  10.8340550
  64.6750570   5.6245970  10.6616790  63.3371090   4.9185280  10.6047330
  66.5926360   2.5129420  12.2178390  66.7122570   1.9170560  12.9573230
  67.4520360   2.5499110  11.7979690  68.9314260   3.0666610  10.7940900
  68.4049480   3.5909230  10.1906040  69.2745600   3.6994000  11.4250630
  62.1069880  11.0866250  11.9498280  61.5690970  11.8112310  11.6306980
  62.3603840  10.6096590  11.1595620  64.9632090  12.3217460  12.2084930
  64.8890790  13.2252600  12.5157300  64.0610930  12.0029360  12.1807000
  56.3659380   9.6492050   5.5118550  56.6962390   8.7813110   5.2797190
  56.7950380   9.8550570   6.3423510  60.9621300   7.9801060   3.1720520
  60.6616840   7.8566030   4.0724430  60.8558790   7.1209650   2.7636250
  56.8549590  10.5162640   8.2500180  56.4180580  10.6963440   9.0824330
  57.4227270  11.2737260   8.1081900  72.4911770  10.0179640  12.5377490
  71.8913760  10.0772200  11.7941410  72.6205670   9.0784620  12.6674340
  56.6874020   3.0282870   4.6089060  56.0322860   2.7594510   3.9648760
  57.5251970   2.9187350   4.1591040  74.1929650   5.3595040   5.2223330
  74.5638480   4.5762360   4.8159300  74.8331580   6.0484140   5.0440630
  71.1763410   6.7431620  10.6353650  70.3623250   7.1728780  10.8979440
  71.5837610   7.3550030  10.0222700  73.1354190   2.7348300   2.5283350
  72.7597790   1.9676230   2.0964640  72.4057310   3.1171000   3.0158280
  57.7249950   3.4135440   9.1492400  58.0922990   3.3262840  10.0288420
  57.1560770   2.6501990   9.0499260  72.5253810   1.8819820  12.1622870
  72.2939900   1.6532570  11.2620820  72.7858360   2.8019370  12.1167760
  71.2339460  11.4950220   4.1621920  71.8298530  11.1734790   3.4856340
  71.4917610  11.0222040   4.9535190  59.1402030   7.9268130  14.3112550
  59.0971660   7.5561040  15.1927010  59.2713040   8.8645700  14.4514370
  62.8408060   9.4827720   9.9122270  62.5999420   9.7502280   9.0252790
  63.7810700   9.6533450   9.9673130  74.1012220  11.5022100  10.7132910
  73.6070500  11.8990970   9.9960040  73.4925510  10.8771310  11.1070190
  58.9790060  10.8730380  11.4310330  58.3850380  10.7415080  12.1700370
  58.9713900  10.0368520  10.9652430  71.7851670  12.1445520   7.9919650
  71.3254640  12.8961330   7.6177670  71.1564130  11.4251990   7.9334450
  58.6102290   8.2388760  10.3818370  57.8836350   7.6194050  10.3144320
  58.6711440   8.6329370   9.5116450  62.2147390  10.4533760   7.1667780
  62.7312410   9.8421120   6.6416040  62.8644770  10.9562540   7.6578790
  64.9542890  11.3442250   7.9936760  65.2420700  11.0896550   7.1169770
  65.4666110  10.7919610   8.5842330  56.8932290  11.5563150   3.5915130
  56.7254330  10.9233830   4.2897020  56.0266800  11.7622550   3.2409320
  65.0215250  12.2658350  15.3604960  65.9482560  12.0302620  15.4040920
  65.0065680  13.0930350  14.8790990  73.2560310  11.8083920   2.3579210
  73.4312500  11.1221660   1.7140130  72.5581880  12.3330970   1.9655880
  71.5892810  11.4928210  15.1846000  72.3818130  10.9977440  14.9771960
  71.8825960  12.1718350  15.7921610  48.9408980  96.2366600  61.1636010
  48.8603030  95.3221210  60.8927720  48.5273400  96.7333670  60.4575720
  47.0727020  98.0145620  63.0445280  46.2969120  97.5346060  63.3343850
  47.7239950  97.3351270  62.8701440  41.0892850  98.3265430  63.9221040
  40.2577730  98.0714140  64.3217550  41.6973830  98.3976200  64.6578960
  39.4984800  93.2867320  57.7063430  38.6101500  93.6283290  57.6043310
  39.7825990  93.0867640  56.8144260  37.4617810  95.8872970  63.5903130
  38.0333920  95.1195170  63.5906770  37.4619350  96.1861730  62.6809740
  38.7042680  91.2957330  65.3772060  38.5245520  90.3983080  65.6574820
  38.3022760  91.8429200  66.0519010  47.5441180  93.4973190  63.2784370
  47.9206000  92.6245070  63.1658040  47.4460690  93.8331890  62.3874810
  41.6746190  91.8698820  58.7401810  41.7812940  92.7702550  59.0470570
  40.7638550  91.8216790  58.4496460  51.3265300  90.9923630  60.2112710
  52.1474920  90.5020200  60.2538190  51.3599380  91.5821290  60.9644550
  39.3229350  93.7917830  63.9854400  40.0039460  94.0556200  64.6041800
  39.0077400  92.9518700  64.3192410  43.5153920  94.8385190  63.0726990
  44.0232140  95.3366160  63.7132010  44.0467160  94.0620390  62.8966350
  55.6164850  93.0090380  66.7756340  54.9117020  93.3972090  66.2571450
  55.8822770  93.7040670  67.3777270  41.7990020  89.4783750  67.3390410
  41.8008460  89.9956140  66.5336310  40.9694330  89.0013930  67.3160340
  51.5626780  92.9324010  62.9840250  50.8582350  93.2208900  63.5643360
  51.9238940  93.7424120  62.6239810  41.4805350  91.1893710  65.3460860
  41.8222160  92.0335760  65.0514730  40.5421160  91.3377450  65.4626200
  54.6313700  92.3778800  63.3749460  53.6838610  92.4117780  63.5064890
  54.9563690  93.1917750  63.7598820  45.1633240  88.6775980  61.6705450
  45.4708220  88.1222870  60.9540950  44.2333940  88.8120440  61.4878440
  47.5514000  96.7424810  58.4065570  46.6243280  96.6762190  58.6354040
  47.7038820  97.6804940  58.2920810  47.5383080  93.0141810  55.4032730
  46.5986750  93.1755770  55.4885190  47.8566340  93.7327490  54.8568720
  54.0595840  97.6960330  65.3811760  53.2314470  97.7653420  64.9061890
  54.6546320  98.2814640  64.9127590  51.5811290  98.3045110  58.9100820
  50.9623710  97.9664660  58.2627120  51.5635740  97.6604870  59.6180010
  51.0237850  94.4829650  66.3266630  50.6109030  95.3083360  66.5806620
  50.2913800  93.8974690  66.1342990  43.1570640  97.2689550  61.1885300
  42.7527640  96.5566800  60.6931200  43.2433760  96.9242790  62.0773340
  41.8699260  94.0432760  64.9684340  42.4213850  94.1528100  64.1937590
  42.3842770  94.4170360  65.6839570  49.7575990  97.5431920  55.9173570
  50.1969270  96.7054350  55.7711390  50.4704410  98.1761320  56.0037710
  53.3393130  88.7974730  54.2314610  53.0265790  88.8901560  55.1313680
  54.1005600  89.3755760  54.1812040  39.8575270  96.1634530  58.6891950
  39.7372870  96.8896620  58.0773220  39.5476160  95.3937440  58.2119860
  42.3238930  89.5069600  62.0715620  41.8807080  90.2879140  61.7400140
  42.8823920  89.8299490  62.7786560  45.4397750  89.1280300  56.9521450
  44.8151930  89.1240170  57.6774760  45.3527870  88.2611260  56.5557420
  44.3614830  90.0516930  63.9305220  44.6587160  90.9579760  63.8497240
  44.9100390  89.5635710  63.3164790  42.1153150  94.6303170  59.7996870
  41.8894070  94.4140340  60.7043490  41.3345680  95.0631630  59.4542840
  49.3450910  94.6366540  58.3987520  48.7459800  95.3602340  58.2151140
  49.8930520  94.5743320  57.6163970  47.9515780  93.2730080  60.4290800
  48.3445350  93.5902280  59.6159490  48.3132630  92.3941960  60.5435320
  36.9879950  89.8630880  62.6521000  36.6993000  90.4333740  63.3645980
  37.7325710  89.3835330  63.0152230  37.1750180  93.8051000  53.8623720
  37.0924850  94.7481760  54.0038710  36.8233240  93.6625910  52.9836070
  48.5370920  95.8635830  64.5241580  47.8052040  96.3722640  64.8731680
  48.1395260  95.0465810  64.2230360  44.9748310  92.5390030  62.9294070
  44.9784370  92.0979980  62.0798610  45.8699430  92.8607360  63.0365890
  40.8250690  92.4216520  61.8888280  40.4850740  92.8991750  62.6455330
  40.0628010  91.9681640  61.5289380  45.0368460  93.5402110  55.9200830
  45.1581280  93.4988590  56.8686650  44.6516970  94.4026260  55.7647560
  48.9996830  91.3169510  63.9364520  49.0169570  91.7678160  64.7806370
  48.7512410  90.4175150  64.1497960  44.0489960  95.8503250  55.3184130
  43.4806860  95.4021500  54.6920040  44.7578960  96.2096030  54.7849280
  45.2756280  96.5991810  64.6759480  45.6426410  96.1250380  65.4220820
  45.0861340  97.4733380  65.0167820  38.1396770  91.3435500  60.8052950
  37.8543690  90.9791170  61.6431570  38.0775630  90.6115960  60.1916090
  43.0655650  95.6400450  66.9943690  42.7612720  96.5192430  67.2194050
  44.0202110  95.7000240  67.0301130  47.8135360  90.2364760  57.5266320
  46.9999970  89.7377930  57.4511630  47.6197310  91.0763010  57.1102670
  50.5283750  94.6084410  55.8228480  51.4163370  94.9201640  55.6479820
  50.4988840  93.7356660  55.4309060  52.7998020  95.9196250  55.2908340
  52.7161740  96.3510470  54.4404780  53.5192210  96.3794600  55.7235160
  37.6327430  96.4794450  54.7649650  38.5022280  96.7619250  55.0485570
  37.1417750  97.2930320  54.6498460  44.7962240  97.8667660  58.8857930
  45.2525020  98.6772910  59.1118120  44.4450450  97.5490800  59.7176420
  40.6974020  88.2105310  59.3580450  40.5688650  88.2023210  60.3065370
  39.8736040  88.5488400  59.0071460  49.1906730  92.4618740  66.5688600
  49.5587550  91.6413950  66.8968170  48.3304930  92.5220630  66.9844250
  52.5568760  91.4175680  57.3776160  51.9281920  91.5221350  56.6634390
  52.0620680  91.6372460  58.1670040  44.5252790  93.6961630  58.7934040
  43.8168940  94.1647970  59.2347650  44.8097270  93.0383640  59.4279230
  46.1508720  95.1158330  66.7926570  46.6493970  95.5904150  67.4578420
  46.2931670  94.1921850  66.9996600  48.5568220  90.4212290  60.2329830
  48.4336000  90.4398420  59.2839340  49.5052780  90.4691230  60.3528230
  42.7287810  92.0046710  56.1684750  43.5778340  92.4416860  56.1024940
  42.3619080  92.3166970  56.9956810  51.6497590  96.5759470  61.0816320
  50.7087730  96.5909700  61.2564010  51.9641660  95.7895430  61.5276620
  41.6279230  98.2579070  54.6420280  42.3942500  98.1460430  55.2045710
  41.7053920  97.5617040  53.9897050  40.3225990  95.6904140  55.3253170
  40.4029580  94.7431650  55.4370570  41.2145740  96.0211020  55.4313830
  43.6598260  98.2544200  56.6162920  44.0814680  98.0884070  57.4594310
  43.7849100  97.4444430  56.1218060  46.1725900  97.2781810  53.8640020
  46.6931560  96.5630830  53.4981170  46.8194300  97.9167680  54.1640530
  45.0759420  89.7576360  66.5358580  44.6276720  89.7800620  65.6904130
  44.4424620  89.3595380  67.1328880  50.1570770  96.9384060  67.1171370
  49.6305990  97.4626680  66.5136510  50.5002110  97.5711450  67.7481100
  42.5557160  94.3277430  53.5621080  42.3546220  93.4644790  53.9234420
  42.3849210  94.2410790  52.6242680  50.0345470  89.1385660  56.0907960
  50.3147760  88.2953560  56.4467380  49.2611200  89.3708770  56.6046710
  41.3539960  91.4278050  53.5498960  41.6565860  91.4345480  52.6418110
  42.0934550  91.0775910  54.0466620  44.5724890  90.3712670  54.5355160
  44.2246890  89.6936660  53.9557610  44.7737660  89.9102180  55.3498550
  37.9130530  96.9000320  60.9319530  37.2579370  96.6311960  60.2879230
  38.7508480  96.7904800  60.4821510  50.8620970  91.6941610  55.1538020
  51.2805850  91.5072590  54.3134680  50.5557030  90.8420660  55.4640950
  54.3610700  96.6065750  58.8513820  53.9854300  95.8393680  58.4195110
  53.6313820  96.9888450  59.3388750  38.9506460  97.2852890  65.4722870
  39.3179500  97.1980290  66.3518890  38.3817280  96.5219440  65.3729730
  37.1268610  94.1099250  56.8744860  36.2232690  94.3729450  56.6996520
  37.6109230  94.3810420  56.0944820  53.6361660  94.8323240  62.1521060
  54.1599140  94.3385890  61.5211230  54.2221080  94.9673600  62.8968630
  53.8151380  94.9163110  65.6740610  52.8654090  94.8826650  65.7885600
  53.9964390  95.8263220  65.4390380  39.6695820  93.1664790  54.7839240
  40.3787520  92.7448010  54.2986520  38.9535760  93.2340020  54.1522590
  39.3169980  89.2204120  53.8241890  40.0398110  89.7613060  54.1423110
  39.5894500  88.9467540  52.9483430  53.1261630  94.0896590  58.0913470
  53.6220750  93.8567460  58.8762350  52.9277700  93.2508430  57.6751110
  39.0062170  88.4710310  63.7264510  39.6538360  87.9207690  63.2859670
  39.4264010  88.7253460  64.5480320  54.5548790  92.7257540  60.6251150
  54.4448070  92.5713580  61.5633420  55.3156380  92.1978480  60.3826560
  52.9014510  88.6651670  67.0834150  53.5386730  89.2785810  67.4493340
  53.0489400  88.7012330  66.1383380  55.4439060  90.5565460  53.8657290
  56.3688370  90.4246640  53.6575580  55.4214850  90.6358280  54.8193740
  55.5177550  91.3276120  56.4914000  54.7229050  91.2621240  57.0206910
  55.7220830  92.2626760  56.4799350  38.7594170  88.6265980  66.4689830
  38.4108990  89.0829800  67.2348010  38.4281870  87.7323110  66.5512260
  49.6501590  88.0380060  65.9570830  48.7761430  88.3715170  65.7543760
  49.5412340  87.5653240  66.7822700  50.5573570  90.2450930  67.3412550
  50.2286930  89.4302690  66.9614280  51.5055870  90.2020740  67.2178240
  47.3976410  88.9549900  64.8963740  46.6148200  89.4295400  65.1760500
  47.1039340  88.0504730  64.7876920  51.9497480  89.6573000  62.9412830
  52.3905570  89.6018100  62.0934430  51.6805070  90.5731010  63.0123010
  53.8136050  89.2888240  60.9521650  53.7524450  88.3449460  60.8052670
  54.5928080  89.3968330  61.4975110  38.7416820  89.2597380  57.4177460
  39.4996180  89.3726260  56.8441490  38.2793990  90.0966580  57.3720890
  45.2830630  91.3736650  60.4079770  44.4705140  90.9993540  60.0675650
  45.7872270  90.6181730  60.7100960  49.7855610  88.0379100  61.6462840
  50.3884980  88.6099310  62.1211360  49.0448600  88.6018540  61.4236740
  52.9290210  88.4400660  56.9203120  53.1240840  89.3384110  57.1870550
  52.1420080  88.2087740  57.4136070  41.1141970  89.7861430  55.9579430
  41.6434730  88.9991230  55.8287380  41.7470290  90.4652620  56.1914960
  43.3079810  89.5236570  59.0124820  42.6782550  88.8223880  59.1794950
  42.7684950  90.2840700  58.7957980  48.9408980  96.2366600  42.3892520
  48.8603030  95.3221210  42.1184230  48.5273400  96.7333670  41.6832230
  47.0727020  98.0145620  44.2701790  46.2969120  97.5346060  44.5600360
  47.7239950  97.3351270  44.0957950  41.0892850  98.3265430  45.1477550
  40.2577730  98.0714140  45.5474060  41.6973830  98.3976200  45.8835470
  39.4984800  93.2867320  38.9319940  38.6101500  93.6283290  38.8299820
  39.7825990  93.0867640  38.0400770  37.4617810  95.8872970  44.8159640
  38.0333920  95.1195170  44.8163280  37.4619350  96.1861730  43.9066250
  38.7042680  91.2957330  46.6028570  38.5245520  90.3983080  46.8831330
  38.3022760  91.8429200  47.2775520  47.5441180  93.4973190  44.5040880
  47.9206000  92.6245070  44.3914550  47.4460690  93.8331890  43.6131320
  41.6746190  91.8698820  39.9658320  41.7812940  92.7702550  40.2727080
  40.7638550  91.8216790  39.6752970  51.3265300  90.9923630  41.4369220
  52.1474920  90.5020200  41.4794700  51.3599380  91.5821290  42.1901060
  39.3229350  93.7917830  45.2110910  40.0039460  94.0556200  45.8298310
  39.0077400  92.9518700  45.5448920  43.5153920  94.8385190  44.2983500
  44.0232140  95.3366160  44.9388520  44.0467160  94.0620390  44.1222860
  55.6164850  93.0090380  48.0012850  54.9117020  93.3972090  47.4827960
  55.8822770  93.7040670  48.6033780  41.7990020  89.4783750  48.5646920
  41.8008460  89.9956140  47.7592820  40.9694330  89.0013930  48.5416850
  51.5626780  92.9324010  44.2096760  50.8582350  93.2208900  44.7899870
  51.9238940  93.7424120  43.8496320  41.4805350  91.1893710  46.5717370
  41.8222160  92.0335760  46.2771240  40.5421160  91.3377450  46.6882710
  54.6313700  92.3778800  44.6005970  53.6838610  92.4117780  44.7321400
  54.9563690  93.1917750  44.9855330  45.1633240  88.6775980  42.8961960
  45.4708220  88.1222870  42.1797460  44.2333940  88.8120440  42.7134950
  47.5514000  96.7424810  39.6322080  46.6243280  96.6762190  39.8610550
  47.7038820  97.6804940  39.5177320  47.5383080  93.0141810  36.6289240
  46.5986750  93.1755770  36.7141700  47.8566340  93.7327490  36.0825230
  54.0595840  97.6960330  46.6068270  53.2314470  97.7653420  46.1318400
  54.6546320  98.2814640  46.1384100  51.5811290  98.3045110  40.1357330
  50.9623710  97.9664660  39.4883630  51.5635740  97.6604870  40.8436520
  51.0237850  94.4829650  47.5523140  50.6109030  95.3083360  47.8063130
  50.2913800  93.8974690  47.3599500  43.1570640  97.2689550  42.4141810
  42.7527640  96.5566800  41.9187710  43.2433760  96.9242790  43.3029850
  41.8699260  94.0432760  46.1940850  42.4213850  94.1528100  45.4194100
  42.3842770  94.4170360  46.9096080  49.7575990  97.5431920  37.1430080
  50.1969270  96.7054350  36.9967900  50.4704410  98.1761320  37.2294220
  41.5441990  97.5652120  49.8046190  41.4049760  98.4374920  50.1733590
  40.6623350  97.2224930  49.6594130  53.3393130  88.7974730  35.4571120
  53.0265790  88.8901560  36.3570190  54.1005600  89.3755760  35.4068550
  39.8575270  96.1634530  39.9148460  39.7372870  96.8896620  39.3029730
  39.5476160  95.3937440  39.4376370  54.5494420  93.5346230  51.4345260
  53.9338690  94.0425900  50.9060720  54.2290840  92.6344560  51.3771200
  42.3238930  89.5069600  43.2972130  41.8807080  90.2879140  42.9656650
  42.8823920  89.8299490  44.0043070  46.6108740  92.3738120  48.9007450
  46.1488110  92.5821140  49.7127390  46.2086850  91.5597470  48.5978120
  51.6113250  93.5947070  50.0304110  50.7606840  93.2952820  50.3513180
  51.4515040  93.8389080  49.1187930  48.7062960  95.0948820  52.1302900
  49.0316370  94.2612570  51.7905130  49.4943290  95.6177340  52.2781230
  45.4397750  89.1280300  38.1777960  44.8151930  89.1240170  38.9031270
  45.3527870  88.2611260  37.7813930  44.3614830  90.0516930  45.1561730
  44.6587160  90.9579760  45.0753750  44.9100390  89.5635710  44.5421300
  42.1153150  94.6303170  41.0253380  41.8894070  94.4140340  41.9300000
  41.3345680  95.0631630  40.6799350  49.3450910  94.6366540  39.6244030
  48.7459800  95.3602340  39.4407650  49.8930520  94.5743320  38.8420480
  44.5552360  95.5288750  51.6913650  44.4595960  94.5883480  51.5414050
  45.3984340  95.7503820  51.2961720  47.9515780  93.2730080  41.6547310
  48.3445350  93.5902280  40.8416000  48.3132630  92.3941960  41.7691830
  39.6862900  91.9402420  49.8447430  39.2926290  92.7877630  50.0520210
  38.9981300  91.3028790  50.0356070  46.2607950  92.0237390  52.9144170
  45.5706270  91.8309590  53.5490260  47.0040250  92.3072030  53.4468470
  36.9879950  89.8630880  43.8777510  36.6993000  90.4333740  44.5902490
  37.7325710  89.3835330  44.2408740  37.1750180  93.8051000  35.0880230
  37.0924850  94.7481760  35.2295220  36.8233240  93.6625910  34.2092580
  48.5370920  95.8635830  45.7498090  47.8052040  96.3722640  46.0988190
  48.1395260  95.0465810  45.4486870  44.9748310  92.5390030  44.1550580
  44.9784370  92.0979980  43.3055120  45.8699430  92.8607360  44.2622400
  40.8250690  92.4216520  43.1144790  40.4850740  92.8991750  43.8711840
  40.0628010  91.9681640  42.7545890  45.0368460  93.5402110  37.1457340
  45.1581280  93.4988590  38.0943160  44.6516970  94.4026260  36.9904070
  48.9996830  91.3169510  45.1621030  49.0169570  91.7678160  46.0062880
  48.7512410  90.4175150  45.3754470  44.0489960  95.8503250  36.5440640
  43.4806860  95.4021500  35.9176550  44.7578960  96.2096030  36.0105790
  52.4267580  88.7301690  51.0007410  52.7513350  87.9991350  51.5265390
  52.4624090  88.4115330  50.0988400  45.2756280  96.5991810  45.9015990
  45.6426410  96.1250380  46.6477330  45.0861340  97.4733380  46.2424330
  38.1396770  91.3435500  42.0309460  37.8543690  90.9791170  42.8688080
  38.0775630  90.6115960  41.4172600  43.0655650  95.6400450  48.2200200
  42.7612720  96.5192430  48.4450560  44.0202110  95.7000240  48.2557640
  47.8135360  90.2364760  38.7522830  46.9999970  89.7377930  38.6768140
  47.6197310  91.0763010  38.3359180  50.5283750  94.6084410  37.0484990
  51.4163370  94.9201640  36.8736330  50.4988840  93.7356660  36.6565570
  39.1219380  96.4803190  49.3671560  38.7634320  97.1457040  49.9544900
  38.8273940  95.6486740  49.7384180  42.3232500  96.9387430  52.2511110
  42.0232640  97.0844610  51.3538930  43.0943740  96.3792720  52.1584500
  52.7998020  95.9196250  36.5164850  52.7161740  96.3510470  35.6661290
  53.5192210  96.3794600  36.9491670  37.6327430  96.4794450  35.9906160
  38.5022280  96.7619250  36.2742080  37.1417750  97.2930320  35.8754970
  44.7962240  97.8667660  40.1114440  45.2525020  98.6772910  40.3374630
  44.4450450  97.5490800  40.9432930  40.6974020  88.2105310  40.5836960
  40.5688650  88.2023210  41.5321880  39.8736040  88.5488400  40.2327970
  37.6967950  89.9696430  50.0443660  36.9826470  90.1693350  50.6496270
  38.1162990  89.1936000  50.4158460  49.1906730  92.4618740  47.7945110
  49.5587550  91.6413950  48.1224680  48.3304930  92.5220630  48.2100760
  52.5568760  91.4175680  38.6032670  51.9281920  91.5221350  37.8890900
  52.0620680  91.6372460  39.3926550  44.5252790  93.6961630  40.0190550
  43.8168940  94.1647970  40.4604160  44.8097270  93.0383640  40.6535740
  46.1508720  95.1158330  48.0183080  46.6493970  95.5904150  48.6834930
  46.2931670  94.1921850  48.2253110  48.5568220  90.4212290  41.4586340
  48.4336000  90.4398420  40.5095850  49.5052780  90.4691230  41.5784740
  42.7287810  92.0046710  37.3941260  43.5778340  92.4416860  37.3281450
  42.3619080  92.3166970  38.2213320  53.3575580  91.3326290  48.8611470
  52.8549180  92.0731690  49.2005280  54.1732240  91.7210290  48.5448260
  51.6497590  96.5759470  42.3072830  50.7087730  96.5909700  42.4820520
  51.9641660  95.7895430  42.7533130  41.6279230  98.2579070  35.8676790
  42.3942500  98.1460430  36.4302220  41.7053920  97.5617040  35.2153560
  40.3225990  95.6904140  36.5509680  40.4029580  94.7431650  36.6627080
  41.2145740  96.0211020  36.6570340  37.8496790  97.5119060  51.7865850
  38.3535810  96.9326340  52.3582080  37.1104210  97.7959290  52.3242220
  39.8819870  95.6548650  52.6815920  39.9225210  95.3562520  53.5901150
  40.7365370  96.0556260  52.5223440  43.6598260  98.2544200  37.8419430
  44.0814680  98.0884070  38.6850820  43.7849100  97.4444430  37.3474570
  41.8225680  94.2340750  50.6490410  41.2922140  93.7431700  50.0213750
  42.4913750  94.6624950  50.1148340  46.1725900  97.2781810  35.0896530
  46.6931560  96.5630830  34.7237680  46.8194300  97.9167680  35.3897040
  51.1925910  96.0406370  52.4170750  51.7746680  95.2858690  52.3291230
  51.3687680  96.5713810  51.6402230  42.3097980  91.2003120  50.7287700
  42.2154850  90.5823870  50.0038570  41.7295370  91.9269410  50.5017610
  45.0759420  89.7576360  47.7615090  44.6276720  89.7800620  46.9160640
  44.4424620  89.3595380  48.3585390  47.8182870  96.3846870  49.7665370
  47.9379080  95.7888010  50.5060210  48.6776870  96.4216560  49.3466670
  50.1570770  96.9384060  48.3427880  49.6305990  97.4626680  47.7393020
  50.5002110  97.5711450  48.9737610  42.5557160  94.3277430  34.7877590
  42.3546220  93.4644790  35.1490930  42.3849210  94.2410790  33.8499190
  44.5851640  92.9268220  51.0241190  45.1751330  92.6184070  51.7119010
  43.7671880  92.4547970  51.1801090  49.4045070  92.5434030  51.2574210
  48.7160590  91.8815570  51.1924200  50.1251090  92.0972300  51.7022670
  50.0345470  89.1385660  37.3164470  50.3147760  88.2953560  37.6723890
  49.2611200  89.3708770  37.8303220  41.3539960  91.4278050  34.7755470
  41.6565860  91.4345480  33.8674620  42.0934550  91.0775910  35.2723130
  44.5724890  90.3712670  35.7611670  44.2246890  89.6936660  35.1814120
  44.7737660  89.9102180  36.5755060  37.9130530  96.9000320  42.1576040
  37.2579370  96.6311960  41.5135740  38.7508480  96.7904800  41.7078020
  50.8620970  91.6941610  36.3794530  51.2805850  91.5072590  35.5391190
  50.5557030  90.8420660  36.6897460  54.3610700  96.6065750  40.0770330
  53.9854300  95.8393680  39.6451620  53.6313820  96.9888450  40.5645260
  38.9506460  97.2852890  46.6979380  39.3179500  97.1980290  47.5775400
  38.3817280  96.5219440  46.5986240  53.7510320  95.7537270  49.7109850
  53.5196410  95.5250020  48.8107800  54.0114870  96.6736820  49.6654740
  38.5022460  94.1961980  50.6037800  37.6078510  94.1628740  50.9431510
  39.0420010  94.3948770  51.3689050  52.1898390  90.9793700  52.4889550
  53.0668570  90.9877100  52.8723550  52.2019230  90.2424540  51.8781900
  37.1268610  94.1099250  38.1001370  36.2232690  94.3729450  37.9253030
  37.6109230  94.3810420  37.3201330  53.6361660  94.8323240  43.3777570
  54.1599140  94.3385890  42.7467740  54.2221080  94.9673600  44.1225140
  53.8151380  94.9163110  46.8997120  52.8654090  94.8826650  47.0142110
  53.9964390  95.8263220  46.6646890  39.6695820  93.1664790  36.0095750
  40.3787520  92.7448010  35.5243030  38.9535760  93.2340020  35.3779100
  39.3169980  89.2204120  35.0498400  40.0398110  89.7613060  35.3679620
  39.5894500  88.9467540  34.1739940  53.1261630  94.0896590  39.3169980
  53.6220750  93.8567460  40.1018860  52.9277700  93.2508430  38.9007620
  39.0062170  88.4710310  44.9521020  39.6538360  87.9207690  44.5116180
  39.4264010  88.7253460  45.7736830  54.5548790  92.7257540  41.8507660
  54.4448070  92.5713580  42.7889930  55.3156380  92.1978480  41.6083070
  52.9014510  88.6651670  48.3090660  53.5386730  89.2785810  48.6749850
  53.0489400  88.7012330  47.3639890  55.4439060  90.5565460  35.0913800
  56.3688370  90.4246640  34.8832090  55.4214850  90.6358280  36.0450250
  55.5177550  91.3276120  37.7170510  54.7229050  91.2621240  38.2463420
  55.7220830  92.2626760  37.7055860  38.7594170  88.6265980  47.6946340
  38.4108990  89.0829800  48.4604520  38.4281870  87.7323110  47.7768770
  46.2718990  89.8177860  51.2165760  46.2107880  90.4099690  51.9661170
  47.2119370  89.7103820  51.0716020  48.9093550  89.4747920  50.8558050
  49.5233960  89.7927210  50.1939130  49.4543110  88.9896510  51.4753910
  39.4314810  88.1542180  50.9697110  39.9797800  87.9730230  50.2063220
  39.4970120  87.3636290  51.5053420  49.6501590  88.0380060  47.1827340
  48.7761430  88.3715170  46.9800270  49.5412340  87.5653240  48.0079210
  50.5573570  90.2450930  48.5669060  50.2286930  89.4302690  48.1870790
  51.5055870  90.2020740  48.4434750  47.3976410  88.9549900  46.1220250
  46.6148200  89.4295400  46.4017010  47.1039340  88.0504730  46.0133430
  51.9497480  89.6573000  44.1669340  52.3905570  89.6018100  43.3190940
  51.6805070  90.5731010  44.2379520  53.8136050  89.2888240  42.1778160
  53.7524450  88.3449460  42.0309180  54.5928080  89.3968330  42.7231620
  38.7416820  89.2597380  38.6433970  39.4996180  89.3726260  38.0698000
  38.2793990  90.0966580  38.5977400  45.2830630  91.3736650  41.6336280
  44.4705140  90.9993540  41.2932160  45.7872270  90.6181730  41.9357470
  49.7855610  88.0379100  42.8719350  50.3884980  88.6099310  43.3467870
  49.0448600  88.6018540  42.6493250  52.9290210  88.4400660  38.1459630
  53.1240840  89.3384110  38.4127060  52.1420080  88.2087740  38.6392580
  41.1141970  89.7861430  37.1835940  41.6434730  88.9991230  37.0543890
  41.7470290  90.4652620  37.4171470  43.3079810  89.5236570  40.2381330
  42.6782550  88.8223880  40.4051460  42.7684950  90.2840700  40.0214490
  43.4335370  88.8020550  52.6733820  43.1519640  89.3054150  51.9094640
  43.8155070  88.0042300  52.3075950  50.0350830  88.2174130  53.2514290
  49.9216280  88.5368740  54.1465810  50.8520570  88.6186640  52.9551570
  48.9408980  96.2366600  23.6149030  48.8603030  95.3221210  23.3440740
  48.5273400  96.7333670  22.9088740  47.0727020  98.0145620  25.4958300
  46.2969120  97.5346060  25.7856870  47.7239950  97.3351270  25.3214460
  41.0892850  98.3265430  26.3734060  40.2577730  98.0714140  26.7730570
  41.6973830  98.3976200  27.1091980  39.4984800  93.2867320  20.1576450
  38.6101500  93.6283290  20.0556330  39.7825990  93.0867640  19.2657280
  37.4617810  95.8872970  26.0416150  38.0333920  95.1195170  26.0419790
  37.4619350  96.1861730  25.1322760  38.7042680  91.2957330  27.8285080
  38.5245520  90.3983080  28.1087840  38.3022760  91.8429200  28.5032030
  47.5441180  93.4973190  25.7297390  47.9206000  92.6245070  25.6171060
  47.4460690  93.8331890  24.8387830  41.6746190  91.8698820  21.1914830
  41.7812940  92.7702550  21.4983590  40.7638550  91.8216790  20.9009480
  51.3265300  90.9923630  22.6625730  52.1474920  90.5020200  22.7051210
  51.3599380  91.5821290  23.4157570  39.3229350  93.7917830  26.4367420
  40.0039460  94.0556200  27.0554820  39.0077400  92.9518700  26.7705430
  43.5153920  94.8385190  25.5240010  44.0232140  95.3366160  26.1645030
  44.0467160  94.0620390  25.3479370  55.6164850  93.0090380  29.2269360
  54.9117020  93.3972090  28.7084470  55.8822770  93.7040670  29.8290290
  41.7990020  89.4783750  29.7903430  41.8008460  89.9956140  28.9849330
  40.9694330  89.0013930  29.7673360  51.5626780  92.9324010  25.4353270
  50.8582350  93.2208900  26.0156380  51.9238940  93.7424120  25.0752830
  41.4805350  91.1893710  27.7973880  41.8222160  92.0335760  27.5027750
  40.5421160  91.3377450  27.9139220  54.6313700  92.3778800  25.8262480
  53.6838610  92.4117780  25.9577910  54.9563690  93.1917750  26.2111840
  45.1633240  88.6775980  24.1218470  45.4708220  88.1222870  23.4053970
  44.2333940  88.8120440  23.9391460  47.5514000  96.7424810  20.8578590
  46.6243280  96.6762190  21.0867060  47.7038820  97.6804940  20.7433830
  47.5383080  93.0141810  17.8545750  46.5986750  93.1755770  17.9398210
  47.8566340  93.7327490  17.3081740  54.0595840  97.6960330  27.8324780
  53.2314470  97.7653420  27.3574910  54.6546320  98.2814640  27.3640610
  51.5811290  98.3045110  21.3613840  50.9623710  97.9664660  20.7140140
  51.5635740  97.6604870  22.0693030  51.0237850  94.4829650  28.7779650
  50.6109030  95.3083360  29.0319640  50.2913800  93.8974690  28.5856010
  43.1570640  97.2689550  23.6398320  42.7527640  96.5566800  23.1444220
  43.2433760  96.9242790  24.5286360  41.8699260  94.0432760  27.4197360
  42.4213850  94.1528100  26.6450610  42.3842770  94.4170360  28.1352590
  49.7575990  97.5431920  18.3686590  50.1969270  96.7054350  18.2224410
  50.4704410  98.1761320  18.4550730  41.5441990  97.5652120  31.0302700
  41.4049760  98.4374920  31.3990100  40.6623350  97.2224930  30.8850640
  53.3393130  88.7974730  16.6827630  53.0265790  88.8901560  17.5826700
  54.1005600  89.3755760  16.6325060  39.8575270  96.1634530  21.1404970
  39.7372870  96.8896620  20.5286240  39.5476160  95.3937440  20.6632880
  54.5494420  93.5346230  32.6601770  53.9338690  94.0425900  32.1317230
  54.2290840  92.6344560  32.6027710  42.3238930  89.5069600  24.5228640
  41.8807080  90.2879140  24.1913160  42.8823920  89.8299490  25.2299580
  46.6108740  92.3738120  30.1263960  46.1488110  92.5821140  30.9383900
  46.2086850  91.5597470  29.8234630  51.6113250  93.5947070  31.2560620
  50.7606840  93.2952820  31.5769690  51.4515040  93.8389080  30.3444440
  48.7062960  95.0948820  33.3559410  49.0316370  94.2612570  33.0161640
  49.4943290  95.6177340  33.5037740  45.4397750  89.1280300  19.4034470
  44.8151930  89.1240170  20.1287780  45.3527870  88.2611260  19.0070440
  44.3614830  90.0516930  26.3818240  44.6587160  90.9579760  26.3010260
  44.9100390  89.5635710  25.7677810  42.1153150  94.6303170  22.2509890
  41.8894070  94.4140340  23.1556510  41.3345680  95.0631630  21.9055860
  49.3450910  94.6366540  20.8500540  48.7459800  95.3602340  20.6664160
  49.8930520  94.5743320  20.0676990  44.5552360  95.5288750  32.9170160
  44.4595960  94.5883480  32.7670560  45.3984340  95.7503820  32.5218230
  47.9515780  93.2730080  22.8803820  48.3445350  93.5902280  22.0672510
  48.3132630  92.3941960  22.9948340  39.6862900  91.9402420  31.0703940
  39.2926290  92.7877630  31.2776720  38.9981300  91.3028790  31.2612580
  46.2607950  92.0237390  34.1400680  45.5706270  91.8309590  34.7746770
  47.0040250  92.3072030  34.6724980  36.9879950  89.8630880  25.1034020
  36.6993000  90.4333740  25.8159000  37.7325710  89.3835330  25.4665250
  37.1750180  93.8051000  16.3136740  37.0924850  94.7481760  16.4551730
  36.8233240  93.6625910  15.4349090  48.5370920  95.8635830  26.9754600
  47.8052040  96.3722640  27.3244700  48.1395260  95.0465810  26.6743380
  44.9748310  92.5390030  25.3807090  44.9784370  92.0979980  24.5311630
  45.8699430  92.8607360  25.4878910  40.8250690  92.4216520  24.3401300
  40.4850740  92.8991750  25.0968350  40.0628010  91.9681640  23.9802400
  45.0368460  93.5402110  18.3713850  45.1581280  93.4988590  19.3199670
  44.6516970  94.4026260  18.2160580  48.9996830  91.3169510  26.3877540
  49.0169570  91.7678160  27.2319390  48.7512410  90.4175150  26.6010980
  44.0489960  95.8503250  17.7697150  43.4806860  95.4021500  17.1433060
  44.7578960  96.2096030  17.2362300  52.4267580  88.7301690  32.2263920
  52.7513350  87.9991350  32.7521900  52.4624090  88.4115330  31.3244910
  45.2756280  96.5991810  27.1272500  45.6426410  96.1250380  27.8733840
  45.0861340  97.4733380  27.4680840  38.1396770  91.3435500  23.2565970
  37.8543690  90.9791170  24.0944590  38.0775630  90.6115960  22.6429110
  43.0655650  95.6400450  29.4456710  42.7612720  96.5192430  29.6707070
  44.0202110  95.7000240  29.4814150  47.8135360  90.2364760  19.9779340
  46.9999970  89.7377930  19.9024650  47.6197310  91.0763010  19.5615690
  50.5283750  94.6084410  18.2741500  51.4163370  94.9201640  18.0992840
  50.4988840  93.7356660  17.8822080  39.1219380  96.4803190  30.5928070
  38.7634320  97.1457040  31.1801410  38.8273940  95.6486740  30.9640690
  42.3232500  96.9387430  33.4767620  42.0232640  97.0844610  32.5795440
  43.0943740  96.3792720  33.3841010  52.7998020  95.9196250  17.7421360
  52.7161740  96.3510470  16.8917800  53.5192210  96.3794600  18.1748180
  37.6327430  96.4794450  17.2162670  38.5022280  96.7619250  17.4998590
  37.1417750  97.2930320  17.1011480  44.7962240  97.8667660  21.3370950
  45.2525020  98.6772910  21.5631140  44.4450450  97.5490800  22.1689440
  40.6974020  88.2105310  21.8093470  40.5688650  88.2023210  22.7578390
  39.8736040  88.5488400  21.4584480  37.6967950  89.9696430  31.2700170
  36.9826470  90.1693350  31.8752780  38.1162990  89.1936000  31.6414970
  49.1906730  92.4618740  29.0201620  49.5587550  91.6413950  29.3481190
  48.3304930  92.5220630  29.4357270  52.5568760  91.4175680  19.8289180
  51.9281920  91.5221350  19.1147410  52.0620680  91.6372460  20.6183060
  44.5252790  93.6961630  21.2447060  43.8168940  94.1647970  21.6860670
  44.8097270  93.0383640  21.8792250  46.1508720  95.1158330  29.2439590
  46.6493970  95.5904150  29.9091440  46.2931670  94.1921850  29.4509620
  48.5568220  90.4212290  22.6842850  48.4336000  90.4398420  21.7352360
  49.5052780  90.4691230  22.8041250  42.7287810  92.0046710  18.6197770
  43.5778340  92.4416860  18.5537960  42.3619080  92.3166970  19.4469830
  53.3575580  91.3326290  30.0867980  52.8549180  92.0731690  30.4261790
  54.1732240  91.7210290  29.7704770  51.6497590  96.5759470  23.5329340
  50.7087730  96.5909700  23.7077030  51.9641660  95.7895430  23.9789640
  41.6279230  98.2579070  17.0933300  42.3942500  98.1460430  17.6558730
  41.7053920  97.5617040  16.4410070  40.3225990  95.6904140  17.7766190
  40.4029580  94.7431650  17.8883590  41.2145740  96.0211020  17.8826850
  37.8496790  97.5119060  33.0122360  38.3535810  96.9326340  33.5838590
  37.1104210  97.7959290  33.5498730  39.8819870  95.6548650  33.9072430
  39.9225210  95.3562520  34.8157660  40.7365370  96.0556260  33.7479950
  43.6598260  98.2544200  19.0675940  44.0814680  98.0884070  19.9107330
  43.7849100  97.4444430  18.5731080  41.8225680  94.2340750  31.8746920
  41.2922140  93.7431700  31.2470260  42.4913750  94.6624950  31.3404850
  46.1725900  97.2781810  16.3153040  46.6931560  96.5630830  15.9494190
  46.8194300  97.9167680  16.6153550  51.1925910  96.0406370  33.6427260
  51.7746680  95.2858690  33.5547740  51.3687680  96.5713810  32.8658740
  42.3097980  91.2003120  31.9544210  42.2154850  90.5823870  31.2295080
  41.7295370  91.9269410  31.7274120  45.0759420  89.7576360  28.9871600
  44.6276720  89.7800620  28.1417150  44.4424620  89.3595380  29.5841900
  47.8182870  96.3846870  30.9921880  47.9379080  95.7888010  31.7316720
  48.6776870  96.4216560  30.5723180  50.1570770  96.9384060  29.5684390
  49.6305990  97.4626680  28.9649530  50.5002110  97.5711450  30.1994120
  42.5557160  94.3277430  16.0134100  42.3546220  93.4644790  16.3747440
  42.3849210  94.2410790  15.0755700  44.5851640  92.9268220  32.2497700
  45.1751330  92.6184070  32.9375520  43.7671880  92.4547970  32.4057600
  49.4045070  92.5434030  32.4830720  48.7160590  91.8815570  32.4180710
  50.1251090  92.0972300  32.9279180  50.0345470  89.1385660  18.5420980
  50.3147760  88.2953560  18.8980400  49.2611200  89.3708770  19.0559730
  41.3539960  91.4278050  16.0011980  41.6565860  91.4345480  15.0931130
  42.0934550  91.0775910  16.4979640  44.5724890  90.3712670  16.9868180
  44.2246890  89.6936660  16.4070630  44.7737660  89.9102180  17.8011570
  37.9130530  96.9000320  23.3832550  37.2579370  96.6311960  22.7392250
  38.7508480  96.7904800  22.9334530  50.8620970  91.6941610  17.6051040
  51.2805850  91.5072590  16.7647700  50.5557030  90.8420660  17.9153970
  54.3610700  96.6065750  21.3026840  53.9854300  95.8393680  20.8708130
  53.6313820  96.9888450  21.7901770  38.9506460  97.2852890  27.9235890
  39.3179500  97.1980290  28.8031910  38.3817280  96.5219440  27.8242750
  53.7510320  95.7537270  30.9366360  53.5196410  95.5250020  30.0364310
  54.0114870  96.6736820  30.8911250  38.5022460  94.1961980  31.8294310
  37.6078510  94.1628740  32.1688020  39.0420010  94.3948770  32.5945560
  52.1898390  90.9793700  33.7146060  53.0668570  90.9877100  34.0980060
  52.2019230  90.2424540  33.1038410  37.1268610  94.1099250  19.3257880
  36.2232690  94.3729450  19.1509540  37.6109230  94.3810420  18.5457840
  53.6361660  94.8323240  24.6034080  54.1599140  94.3385890  23.9724250
  54.2221080  94.9673600  25.3481650  53.8151380  94.9163110  28.1253630
  52.8654090  94.8826650  28.2398620  53.9964390  95.8263220  27.8903400
  39.6695820  93.1664790  17.2352260  40.3787520  92.7448010  16.7499540
  38.9535760  93.2340020  16.6035610  39.3169980  89.2204120  16.2754910
  40.0398110  89.7613060  16.5936130  39.5894500  88.9467540  15.3996450
  53.1261630  94.0896590  20.5426490  53.6220750  93.8567460  21.3275370
  52.9277700  93.2508430  20.1264130  39.0062170  88.4710310  26.1777530
  39.6538360  87.9207690  25.7372690  39.4264010  88.7253460  26.9993340
  54.5548790  92.7257540  23.0764170  54.4448070  92.5713580  24.0146440
  55.3156380  92.1978480  22.8339580  52.9014510  88.6651670  29.5347170
  53.5386730  89.2785810  29.9006360  53.0489400  88.7012330  28.5896400
  55.4439060  90.5565460  16.3170310  56.3688370  90.4246640  16.1088600
  55.4214850  90.6358280  17.2706760  55.5177550  91.3276120  18.9427020
  54.7229050  91.2621240  19.4719930  55.7220830  92.2626760  18.9312370
  38.7594170  88.6265980  28.9202850  38.4108990  89.0829800  29.6861030
  38.4281870  87.7323110  29.0025280  46.2718990  89.8177860  32.4422270
  46.2107880  90.4099690  33.1917680  47.2119370  89.7103820  32.2972530
  48.9093550  89.4747920  32.0814560  49.5233960  89.7927210  31.4195640
  49.4543110  88.9896510  32.7010420  39.4314810  88.1542180  32.1953620
  39.9797800  87.9730230  31.4319730  39.4970120  87.3636290  32.7309930
  49.6501590  88.0380060  28.4083850  48.7761430  88.3715170  28.2056780
  49.5412340  87.5653240  29.2335720  50.5573570  90.2450930  29.7925570
  50.2286930  89.4302690  29.4127300  51.5055870  90.2020740  29.6691260
  47.3976410  88.9549900  27.3476760  46.6148200  89.4295400  27.6273520
  47.1039340  88.0504730  27.2389940  51.9497480  89.6573000  25.3925850
  52.3905570  89.6018100  24.5447450  51.6805070  90.5731010  25.4636030
  53.8136050  89.2888240  23.4034670  53.7524450  88.3449460  23.2565690
  54.5928080  89.3968330  23.9488130  38.7416820  89.2597380  19.8690480
  39.4996180  89.3726260  19.2954510  38.2793990  90.0966580  19.8233910
  45.2830630  91.3736650  22.8592790  44.4705140  90.9993540  22.5188670
  45.7872270  90.6181730  23.1613980  49.7855610  88.0379100  24.0975860
  50.3884980  88.6099310  24.5724380  49.0448600  88.6018540  23.8749760
  52.9290210  88.4400660  19.3716140  53.1240840  89.3384110  19.6383570
  52.1420080  88.2087740  19.8649090  41.1141970  89.7861430  18.4092450
  41.6434730  88.9991230  18.2800400  41.7470290  90.4652620  18.6427980
  43.3079810  89.5236570  21.4637840  42.6782550  88.8223880  21.6307970
  42.7684950  90.2840700  21.2471000  43.4335370  88.8020550  33.8990330
  43.1519640  89.3054150  33.1351150  43.8155070  88.0042300  33.5332460
  50.0350830  88.2174130  34.4770800  49.9216280  88.5368740  35.3722320
  50.8520570  88.6186640  34.1808080  48.9408980  96.2366600   4.8405540
  48.8603030  95.3221210   4.5697250  48.5273400  96.7333670   4.1345250
  47.0727020  98.0145620   6.7214810  46.2969120  97.5346060   7.0113380
  47.7239950  97.3351270   6.5470970  41.0892850  98.3265430   7.5990570
  40.2577730  98.0714140   7.9987080  41.6973830  98.3976200   8.3348490
  37.4617810  95.8872970   7.2672660  38.0333920  95.1195170   7.2676300
  37.4619350  96.1861730   6.3579270  38.7042680  91.2957330   9.0541590
  38.5245520  90.3983080   9.3344350  38.3022760  91.8429200   9.7288540
  47.5441180  93.4973190   6.9553900  47.9206000  92.6245070   6.8427570
  47.4460690  93.8331890   6.0644340  41.6746190  91.8698820   2.4171340
  41.7812940  92.7702550   2.7240100  40.7638550  91.8216790   2.1265990
  51.3265300  90.9923630   3.8882240  52.1474920  90.5020200   3.9307720
  51.3599380  91.5821290   4.6414080  39.3229350  93.7917830   7.6623930
  40.0039460  94.0556200   8.2811330  39.0077400  92.9518700   7.9961940
  43.5153920  94.8385190   6.7496520  44.0232140  95.3366160   7.3901540
  44.0467160  94.0620390   6.5735880  55.6164850  93.0090380  10.4525870
  54.9117020  93.3972090   9.9340980  55.8822770  93.7040670  11.0546800
  41.7990020  89.4783750  11.0159940  41.8008460  89.9956140  10.2105840
  40.9694330  89.0013930  10.9929870  51.5626780  92.9324010   6.6609780
  50.8582350  93.2208900   7.2412890  51.9238940  93.7424120   6.3009340
  41.4805350  91.1893710   9.0230390  41.8222160  92.0335760   8.7284260
  40.5421160  91.3377450   9.1395730  54.6313700  92.3778800   7.0518990
  53.6838610  92.4117780   7.1834420  54.9563690  93.1917750   7.4368350
  45.1633240  88.6775980   5.3474980  45.4708220  88.1222870   4.6310480
  44.2333940  88.8120440   5.1647970  47.5514000  96.7424810   2.0835100
  46.6243280  96.6762190   2.3123570  47.7038820  97.6804940   1.9690340
  54.0595840  97.6960330   9.0581290  53.2314470  97.7653420   8.5831420
  54.6546320  98.2814640   8.5897120  51.5811290  98.3045110   2.5870350
  50.9623710  97.9664660   1.9396650  51.5635740  97.6604870   3.2949540
  51.0237850  94.4829650  10.0036160  50.6109030  95.3083360  10.2576150
  50.2913800  93.8974690   9.8112520  43.1570640  97.2689550   4.8654830
  42.7527640  96.5566800   4.3700730  43.2433760  96.9242790   5.7542870
  41.8699260  94.0432760   8.6453870  42.4213850  94.1528100   7.8707120
  42.3842770  94.4170360   9.3609100  41.5441990  97.5652120  12.2559210
  41.4049760  98.4374920  12.6246610  40.6623350  97.2224930  12.1107150
  39.8575270  96.1634530   2.3661480  39.7372870  96.8896620   1.7542750
  39.5476160  95.3937440   1.8889390  54.5494420  93.5346230  13.8858280
  53.9338690  94.0425900  13.3573740  54.2290840  92.6344560  13.8284220
  42.3238930  89.5069600   5.7485150  41.8807080  90.2879140   5.4169670
  42.8823920  89.8299490   6.4556090  46.6108740  92.3738120  11.3520470
  46.1488110  92.5821140  12.1640410  46.2086850  91.5597470  11.0491140
  51.6113250  93.5947070  12.4817130  50.7606840  93.2952820  12.8026200
  51.4515040  93.8389080  11.5700950  48.7062960  95.0948820  14.5815920
  49.0316370  94.2612570  14.2418150  49.4943290  95.6177340  14.7294250
  44.3614830  90.0516930   7.6074750  44.6587160  90.9579760   7.5266770
  44.9100390  89.5635710   6.9934320  42.1153150  94.6303170   3.4766400
  41.8894070  94.4140340   4.3813020  41.3345680  95.0631630   3.1312370
  44.5552360  95.5288750  14.1426670  44.4595960  94.5883480  13.9927070
  45.3984340  95.7503820  13.7474740  47.9515780  93.2730080   4.1060330
  48.3445350  93.5902280   3.2929020  48.3132630  92.3941960   4.2204850
  39.6862900  91.9402420  12.2960450  39.2926290  92.7877630  12.5033230
  38.9981300  91.3028790  12.4869090  46.2607950  92.0237390  15.3657190
  45.5706270  91.8309590  16.0003280  47.0040250  92.3072030  15.8981490
  36.9879950  89.8630880   6.3290530  36.6993000  90.4333740   7.0415510
  37.7325710  89.3835330   6.6921760  48.5370920  95.8635830   8.2011110
  47.8052040  96.3722640   8.5501210  48.1395260  95.0465810   7.8999890
  44.9748310  92.5390030   6.6063600  44.9784370  92.0979980   5.7568140
  45.8699430  92.8607360   6.7135420  40.8250690  92.4216520   5.5657810
  40.4850740  92.8991750   6.3224860  40.0628010  91.9681640   5.2058910
  48.9996830  91.3169510   7.6134050  49.0169570  91.7678160   8.4575900
  48.7512410  90.4175150   7.8267490  52.4267580  88.7301690  13.4520430
  52.7513350  87.9991350  13.9778410  52.4624090  88.4115330  12.5501420
  45.2756280  96.5991810   8.3529010  45.6426410  96.1250380   9.0990350
  45.0861340  97.4733380   8.6937350  38.1396770  91.3435500   4.4822480
  37.8543690  90.9791170   5.3201100  38.0775630  90.6115960   3.8685620
  43.0655650  95.6400450  10.6713220  42.7612720  96.5192430  10.8963580
  44.0202110  95.7000240  10.7070660  39.1219380  96.4803190  11.8184580
  38.7634320  97.1457040  12.4057920  38.8273940  95.6486740  12.1897200
  42.3232500  96.9387430  14.7024130  42.0232640  97.0844610  13.8051950
  43.0943740  96.3792720  14.6097520  44.7962240  97.8667660   2.5627460
  45.2525020  98.6772910   2.7887650  44.4450450  97.5490800   3.3945950
  40.6974020  88.2105310   3.0349980  40.5688650  88.2023210   3.9834900
  39.8736040  88.5488400   2.6840990  37.6967950  89.9696430  12.4956680
  36.9826470  90.1693350  13.1009290  38.1162990  89.1936000  12.8671480
  49.1906730  92.4618740  10.2458130  49.5587550  91.6413950  10.5737700
  48.3304930  92.5220630  10.6613780  44.5252790  93.6961630   2.4703570
  43.8168940  94.1647970   2.9117180  44.8097270  93.0383640   3.1048760
  46.1508720  95.1158330  10.4696100  46.6493970  95.5904150  11.1347950
  46.2931670  94.1921850  10.6766130  48.5568220  90.4212290   3.9099360
  48.4336000  90.4398420   2.9608870  49.5052780  90.4691230   4.0297760
  53.3575580  91.3326290  11.3124490  52.8549180  92.0731690  11.6518300
  54.1732240  91.7210290  10.9961280  51.6497590  96.5759470   4.7585850
  50.7087730  96.5909700   4.9333540  51.9641660  95.7895430   5.2046150
  37.8496790  97.5119060  14.2378870  38.3535810  96.9326340  14.8095100
  37.1104210  97.7959290  14.7755240  39.8819870  95.6548650  15.1328940
  39.9225210  95.3562520  16.0414170  40.7365370  96.0556260  14.9736460
  41.8225680  94.2340750  13.1003430  41.2922140  93.7431700  12.4726770
  42.4913750  94.6624950  12.5661360  51.1925910  96.0406370  14.8683770
  51.7746680  95.2858690  14.7804250  51.3687680  96.5713810  14.0915250
  42.3097980  91.2003120  13.1800720  42.2154850  90.5823870  12.4551590
  41.7295370  91.9269410  12.9530630  45.0759420  89.7576360  10.2128110
  44.6276720  89.7800620   9.3673660  44.4424620  89.3595380  10.8098410
  47.8182870  96.3846870  12.2178390  47.9379080  95.7888010  12.9573230
  48.6776870  96.4216560  11.7979690  50.1570770  96.9384060  10.7940900
  49.6305990  97.4626680  10.1906040  50.5002110  97.5711450  11.4250630
  44.5851640  92.9268220  13.4754210  45.1751330  92.6184070  14.1632030
  43.7671880  92.4547970  13.6314110  49.4045070  92.5434030  13.7087230
  48.7160590  91.8815570  13.6437220  50.1251090  92.0972300  14.1535690
  37.9130530  96.9000320   4.6089060  37.2579370  96.6311960   3.9648760
  38.7508480  96.7904800   4.1591040  54.3610700  96.6065750   2.5283350
  53.9854300  95.8393680   2.0964640  53.6313820  96.9888450   3.0158280
  38.9506460  97.2852890   9.1492400  39.3179500  97.1980290  10.0288420
  38.3817280  96.5219440   9.0499260  53.7510320  95.7537270  12.1622870
  53.5196410  95.5250020  11.2620820  54.0114870  96.6736820  12.1167760
  38.5022460  94.1961980  13.0550820  37.6078510  94.1628740  13.3944530
  39.0420010  94.3948770  13.8202070  52.1898390  90.9793700  14.9402570
  53.0668570  90.9877100  15.3236570  52.2019230  90.2424540  14.3294920
  53.6361660  94.8323240   5.8290590  54.1599140  94.3385890   5.1980760
  54.2221080  94.9673600   6.5738160  53.8151380  94.9163110   9.3510140
  52.8654090  94.8826650   9.4655130  53.9964390  95.8263220   9.1159910
  53.1261630  94.0896590   1.7683000  53.6220750  93.8567460   2.5531880
  52.9277700  93.2508430   1.3520640  39.0062170  88.4710310   7.4034040
  39.6538360  87.9207690   6.9629200  39.4264010  88.7253460   8.2249850
  54.5548790  92.7257540   4.3020680  54.4448070  92.5713580   5.2402950
  55.3156380  92.1978480   4.0596090  52.9014510  88.6651670  10.7603680
  53.5386730  89.2785810  11.1262870  53.0489400  88.7012330   9.8152910
  38.7594170  88.6265980  10.1459360  38.4108990  89.0829800  10.9117540
  38.4281870  87.7323110  10.2281790  46.2718990  89.8177860  13.6678780
  46.2107880  90.4099690  14.4174190  47.2119370  89.7103820  13.5229040
  48.9093550  89.4747920  13.3071070  49.5233960  89.7927210  12.6452150
  49.4543110  88.9896510  13.9266930  39.4314810  88.1542180  13.4210130
  39.9797800  87.9730230  12.6576240  39.4970120  87.3636290  13.9566440
  49.6501590  88.0380060   9.6340360  48.7761430  88.3715170   9.4313290
  49.5412340  87.5653240  10.4592230  50.5573570  90.2450930  11.0182080
  50.2286930  89.4302690  10.6383810  51.5055870  90.2020740  10.8947770
  47.3976410  88.9549900   8.5733270  46.6148200  89.4295400   8.8530030
  47.1039340  88.0504730   8.4646450  51.9497480  89.6573000   6.6182360
  52.3905570  89.6018100   5.7703960  51.6805070  90.5731010   6.6892540
  53.8136050  89.2888240   4.6291180  53.7524450  88.3449460   4.4822200
  54.5928080  89.3968330   5.1744640  45.2830630  91.3736650   4.0849300
  44.4705140  90.9993540   3.7445180  45.7872270  90.6181730   4.3870490
  49.7855610  88.0379100   5.3232370  50.3884980  88.6099310   5.7980890
  49.0448600  88.6018540   5.1006270  43.3079810  89.5236570   2.6894350
  42.6782550  88.8223880   2.8564480  42.7684950  90.2840700   2.4727510
  43.4335370  88.8020550  15.1246840  43.1519640  89.3054150  14.3607660
  43.8155070  88.0042300  14.7588970  50.0350830  88.2174130  15.7027310
  49.9216280  88.5368740  16.5978830  50.8520570  88.6186640  15.4064590
  48.9408980  77.4623110  61.1636010  48.8603030  76.5477720  60.8927720
  48.5273400  77.9590180  60.4575720  47.0727020  79.2402130  63.0445280
  46.2969120  78.7602570  63.3343850  47.7239950  78.5607780  62.8701440
  41.0892850  79.5521940  63.9221040  40.2577730  79.2970650  64.3217550
  41.6973830  79.6232710  64.6578960  51.0934450  83.6462320  61.8244410
  50.6315980  82.8749560  62.1531580  51.9060000  83.6728390  62.3296860
  41.0694110  83.5862030  64.1179060  41.3722150  82.6959770  63.9389280
  41.8137700  84.1432250  63.8901310  39.4984800  74.5123830  57.7063430
  38.6101500  74.8539800  57.6043310  39.7825990  74.3124150  56.8144260
  37.4617810  77.1129480  63.5903130  38.0333920  76.3451680  63.5906770
  37.4619350  77.4118240  62.6809740  47.3197760  85.9320330  61.4448400
  46.7009200  86.3877830  60.8742840  48.1749540  86.0871790  61.0438100
  46.5136010  81.9159320  63.0515440  46.4444290  80.9749260  62.8904570
  47.2755870  82.0060730  63.6238010  38.7042680  72.5213840  65.3772060
  38.5245520  71.6239590  65.6574820  38.3022760  73.0685710  66.0519010
  47.5441180  74.7229700  63.2784370  47.9206000  73.8501580  63.1658040
  47.4460690  75.0588400  62.3874810  41.6746190  73.0955330  58.7401810
  41.7812940  73.9959060  59.0470570  40.7638550  73.0473300  58.4496460
  51.3265300  72.2180140  60.2112710  52.1474920  71.7276710  60.2538190
  51.3599380  72.8077800  60.9644550  39.3229350  75.0174340  63.9854400
  40.0039460  75.2812710  64.6041800  39.0077400  74.1775210  64.3192410
  43.5153920  76.0641700  63.0726990  44.0232140  76.5622670  63.7132010
  44.0467160  75.2876900  62.8966350  55.6164850  74.2346890  66.7756340
  54.9117020  74.6228600  66.2571450  55.8822770  74.9297180  67.3777270
  41.7990020  70.7040260  67.3390410  41.8008460  71.2212650  66.5336310
  40.9694330  70.2270440  67.3160340  48.1861110  80.8159570  58.8380310
  47.5678380  81.2809020  58.2743030  48.6984360  81.5087050  59.2549820
  43.0492870  80.3435440  65.5163910  42.7162250  80.9704360  66.1584980
  43.2259550  80.8697320  64.7365580  51.5626780  74.1580520  62.9840250
  50.8582350  74.4465410  63.5643360  51.9238940  74.9680630  62.6239810
  41.4805350  72.4150220  65.3460860  41.8222160  73.2592270  65.0514730
  40.5421160  72.5633960  65.4626200  42.2611970  82.3116240  67.3313090
  42.8785970  82.9867320  67.0497540  41.4005090  82.7204220  67.2400590
  37.5544310  81.5016100  56.2119940  37.1772290  81.9903200  55.4804840
  37.8117380  82.1741380  56.8426470  53.1789560  83.7755650  65.2467730
  52.4953080  84.4454760  65.2384400  53.7183850  83.9736300  64.4812590
  54.6313700  73.6035310  63.3749460  53.6838610  73.6374290  63.5064890
  54.9563690  74.4174260  63.7598820  45.1633240  69.9032490  61.6705450
  45.4708220  69.3479380  60.9540950  44.2333940  70.0376950  61.4878440
  50.7148300  85.6199780  63.9612910  50.7275460  85.2162070  63.0935170
  50.1623520  86.3947070  63.8574340  52.0093720  82.3416000  59.0503080
  51.8990050  81.3990330  59.1752500  52.0061970  82.7031640  59.9365840
  50.1133740  80.5229620  65.2895520  50.5302530  80.3089730  64.4548980
  50.8373560  80.7802410  65.8604140  47.5514000  77.9681320  58.4065570
  46.6243280  77.9018700  58.6354040  47.7038820  78.9061450  58.2920810
  47.5383080  74.2398320  55.4032730  46.5986750  74.4012280  55.4885190
  47.8566340  74.9584000  54.8568720  54.0595840  78.9216840  65.3811760
  53.2314470  78.9909930  64.9061890  54.6546320  79.5071150  64.9127590
  51.5811290  79.5301620  58.9100820  50.9623710  79.1921170  58.2627120
  51.5635740  78.8861380  59.6180010  51.0237850  75.7086160  66.3266630
  50.6109030  76.5339870  66.5806620  50.2913800  75.1231200  66.1342990
  43.1570640  78.4946060  61.1885300  42.7527640  77.7823310  60.6931200
  43.2433760  78.1499300  62.0773340  43.6252340  82.1813620  63.3524510
  43.3280630  81.5759090  62.6732290  44.5752160  82.2190930  63.2413870
  41.8699260  75.2689270  64.9684340  42.4213850  75.3784610  64.1937590
  42.3842770  75.6426870  65.6839570  51.7137950  85.7545490  67.0147610
  51.2368510  86.5617680  66.8220220  51.0299740  85.1023820  67.1673820
  49.7575990  78.7688430  55.9173570  50.1969270  77.9310860  55.7711390
  50.4704410  79.4017830  56.0037710  47.8671370  83.7084500  59.8854810
  48.3067280  84.4508830  59.4710200  47.8058260  83.9511070  60.8093770
  53.3393130  70.0231240  54.2314610  53.0265790  70.1158070  55.1313680
  54.1005600  70.6012270  54.1812040  39.8575270  77.3891040  58.6891950
  39.7372870  78.1153130  58.0773220  39.5476160  76.6193950  58.2119860
  37.4960640  80.5606180  64.4960590  37.5741060  80.6954950  63.5516310
  38.1102320  79.8522070  64.6888710  38.7408270  82.2606370  60.9066770
  38.3336350  82.4020960  60.0520370  39.6321280  81.9766530  60.7037980
  50.5341550  86.6953620  57.2417820  50.3742690  86.4056560  58.1399650
  50.3688260  85.9193750  56.7063050  43.0129930  86.4752150  59.0189440
  42.8372410  85.5587690  58.8057240  42.1585670  86.8339440  59.2587240
  50.2367680  84.2041180  55.8015820  49.5432840  84.2018470  55.1418100
  50.9790540  83.7800500  55.3709990  49.8017610  85.8303890  59.8764310
  50.2574560  85.0493270  60.1902930  50.1410130  86.5410710  60.4205490
  37.5520160  81.6020350  67.0355050  37.7151200  81.1325710  66.2174420
  38.0172610  81.0943910  67.7003890  42.3238930  70.7326110  62.0715620
  41.8807080  71.5135650  61.7400140  42.8823920  71.0556000  62.7786560
  45.4397750  70.3536810  56.9521450  44.8151930  70.3496680  57.6774760
  45.3527870  69.4867770  56.5557420  44.3614830  71.2773440  63.9305220
  44.6587160  72.1836270  63.8497240  44.9100390  70.7892220  63.3164790
  42.1153150  75.8559680  59.7996870  41.8894070  75.6396850  60.7043490
  41.3345680  76.2888140  59.4542840  49.3450910  75.8623050  58.3987520
  48.7459800  76.5858850  58.2151140  49.8930520  75.7999830  57.6163970
  47.9515780  74.4986590  60.4290800  48.3445350  74.8158790  59.6159490
  48.3132630  73.6198470  60.5435320  36.9879950  71.0887390  62.6521000
  36.6993000  71.6590250  63.3645980  37.7325710  70.6091840  63.0152230
  37.1750180  75.0307510  53.8623720  37.0924850  75.9738270  54.0038710
  36.8233240  74.8882420  52.9836070  48.5370920  77.0892340  64.5241580
  47.8052040  77.5979150  64.8731680  48.1395260  76.2722320  64.2230360
  44.9748310  73.7646540  62.9294070  44.9784370  73.3236490  62.0798610
  45.8699430  74.0863870  63.0365890  40.8250690  73.6473030  61.8888280
  40.4850740  74.1248260  62.6455330  40.0628010  73.1938150  61.5289380
  45.0368460  74.7658620  55.9200830  45.1581280  74.7245100  56.8686650
  44.6516970  75.6282770  55.7647560  48.9996830  72.5426020  63.9364520
  49.0169570  72.9934670  64.7806370  48.7512410  71.6431660  64.1497960
  44.0489960  77.0759760  55.3184130  43.4806860  76.6278010  54.6920040
  44.7578960  77.4352540  54.7849280  45.2756280  77.8248320  64.6759480
  45.6426410  77.3506890  65.4220820  45.0861340  78.6989890  65.0167820
  38.1396770  72.5692010  60.8052950  37.8543690  72.2047680  61.6431570
  38.0775630  71.8372470  60.1916090  43.0655650  76.8656960  66.9943690
  42.7612720  77.7448940  67.2194050  44.0202110  76.9256750  67.0301130
  41.5937440  81.0717950  57.5910540  40.8199700  80.5315570  57.4309260
  42.3232070  80.5524560  57.2528300  52.3525420  80.0683310  63.3836930
  53.0724540  80.5638600  62.9933040  52.1507240  79.3901200  62.7390800
  47.8135360  71.4621270  57.5266320  46.9999970  70.9634440  57.4511630
  47.6197310  72.3019520  57.1102670  50.5283750  75.8340920  55.8228480
  51.4163370  76.1458150  55.6479820  50.4988840  74.9613170  55.4309060
  41.6374840  80.7398330  61.2289350  42.1553510  79.9366590  61.1746240
  41.1858860  80.6777470  62.0706180  46.5244340  82.0064610  56.5016650
  46.8660040  82.7506840  56.0059970  45.6957050  82.3195730  56.8641480
  52.7998020  77.1452760  55.2908340  52.7161740  77.5766980  54.4404780
  53.5192210  77.6051110  55.7235160  53.8285270  83.9995020  58.0190470
  53.1861430  83.3450640  58.2934190  53.4415930  84.4050110  57.2431140
  49.4071750  81.3280450  61.8662160  49.7595570  80.7308580  61.2063530
  48.5234080  81.0024680  62.0370410  45.4935030  82.0878140  59.2732570
  46.1806160  82.6347350  59.6540160  44.7067450  82.6318870  59.3082180
  37.6327430  77.7050960  54.7649650  38.5022280  77.9875760  55.0485570
  37.1417750  78.5186830  54.6498460  44.7962240  79.0924170  58.8857930
  45.2525020  79.9029420  59.1118120  44.4450450  78.7747310  59.7176420
  47.0994850  84.6030510  66.1150230  47.7437070  84.8089890  66.7923650
  47.4624290  83.8418910  65.6621080  40.6974020  69.4361820  59.3580450
  40.5688650  69.4279720  60.3065370  39.8736040  69.7744910  59.0071460
  48.3726930  82.6062860  64.8327680  49.0149160  81.9056020  64.9459850
  48.8976280  83.3861300  64.6524570  52.2182650  82.8911480  54.5566820
  51.9920230  82.1741920  55.1491460  51.8278850  82.6423920  53.7188570
  37.9998680  86.9178340  55.3311280  38.3596320  87.5167680  54.6768550
  37.8591020  87.4638230  56.1046310  51.7998900  80.8083420  56.2180980
  51.5120600  81.2696110  57.0058860  52.5951070  80.3481190  56.4865200
  44.0167300  84.3009540  56.1484950  44.0077400  85.0339230  55.5329460
  43.0965660  84.0541120  56.2411910  39.6173940  79.5224430  56.8931710
  39.0101890  80.2623330  56.9027010  40.0923290  79.6123790  56.0669910
  49.1906730  73.6875250  66.5688600  49.5587550  72.8670460  66.8968170
  48.3304930  73.7477140  66.9844250  52.5568760  72.6432190  57.3776160
  51.9281920  72.7477860  56.6634390  52.0620680  72.8628970  58.1670040
  47.0026900  84.3637780  54.8110140  47.1038880  84.1601770  53.8812120
  46.1028640  84.1096060  55.0157920  44.5252790  74.9218140  58.7934040
  43.8168940  75.3904480  59.2347650  44.8097270  74.2640150  59.4279230
  46.1508720  76.3414840  66.7926570  46.6493970  76.8160660  67.4578420
  46.2931670  75.4178360  66.9996600  48.5568220  71.6468800  60.2329830
  48.4336000  71.6654930  59.2839340  49.5052780  71.6947740  60.3528230
  45.6445010  86.8824100  59.5057810  45.8986510  86.8445490  58.5837180
  44.6957490  86.7557430  59.4986060  42.7287810  73.2303220  56.1684750
  43.5778340  73.6673370  56.1024940  42.3619080  73.5423480  56.9956810
  51.6497590  77.8015980  61.0816320  50.7087730  77.8166210  61.2564010
  51.9641660  77.0151940  61.5276620  41.6279230  79.4835580  54.6420280
  42.3942500  79.3716940  55.2045710  41.7053920  78.7873550  53.9897050
  40.3225990  76.9160650  55.3253170  40.4029580  75.9688160  55.4370570
  41.2145740  77.2467530  55.4313830  53.6523170  84.9724830  62.7570580
  53.7770590  85.7956000  63.2294390  54.5188730  84.7615560  62.4094730
  41.1240700  87.0656040  62.4287710  41.8603180  86.5171500  62.6996280
  41.5081620  87.9312050  62.2893700  38.0086180  83.1329610  58.3029220
  37.0825960  83.3750750  58.2934630  38.4742610  83.9603870  58.1813970
  44.2343010  86.2386350  54.2513280  45.0271620  86.5275180  53.7995070
  43.7147360  85.8078520  53.5725760  53.2873180  85.4656480  55.6750020
  53.0014690  85.0521620  54.8604200  53.0892730  86.3944190  55.5550540
  44.7520410  81.4589760  54.1155630  44.6471050  80.8442110  54.8417010
  44.5844630  80.9355650  53.3318640  47.9923140  80.5209790  54.7197620
  47.4433240  80.9679090  55.3640360  48.6142400  80.0159040  55.2435290
  43.6598260  79.4800710  56.6162920  44.0814680  79.3140580  57.4594310
  43.7849100  78.6700940  56.1218060  46.1725900  78.5038320  53.8640020
  46.6931560  77.7887340  53.4981170  46.8194300  79.1424190  54.1640530
  45.0759420  70.9832870  66.5358580  44.6276720  71.0057130  65.6904130
  44.4424620  70.5851890  67.1328880  45.4818970  79.8787200  67.1571020
  45.9007080  80.7219930  66.9847260  44.5627600  80.0159240  66.9277800
  50.1570770  78.1640570  67.1171370  49.6305990  78.6883190  66.5136510
  50.5002110  78.7967960  67.7481100  42.5557160  75.5533940  53.5621080
  42.3546220  74.6901300  53.9234420  42.3849210  75.4667300  52.6242680
  50.0345470  70.3642170  56.0907960  50.3147760  69.5210070  56.4467380
  49.2611200  70.5965280  56.6046710  41.3539960  72.6534560  53.5498960
  41.6565860  72.6601990  52.6418110  42.0934550  72.3032420  54.0466620
  44.5724890  71.5969180  54.5355160  44.2246890  70.9193170  53.9557610
  44.7737660  71.1358690  55.3498550  46.7373930  86.5849930  56.1541760
  47.6324720  86.9234900  56.1760520  46.7691560  85.8629340  55.5266040
  40.3770090  81.9576980  54.3828760  40.8144960  82.5006650  55.0386340
  40.8617820  81.1323930  54.3925100  37.5915890  84.7466010  61.8349020
  37.9218900  83.8787070  61.6027660  38.0206890  84.9524530  62.6653980
  42.1877810  83.0775020  59.4950990  41.8873350  82.9539990  60.3954900
  42.0815300  82.2183610  59.0866720  38.0806100  85.6136600  64.5730650
  37.6437090  85.7937400  65.4054800  38.6483780  86.3711220  64.4312370
  54.9569730  82.8571420  54.1977670  54.1262690  82.9248070  54.6684900
  55.1341560  83.7475540  53.8944530  54.4126190  79.6018900  56.7011870
  55.1745100  80.1715550  56.8071560  54.4280560  79.0346100  57.4720180
  37.9130530  78.1256830  60.9319530  37.2579370  77.8568470  60.2879230
  38.7508480  78.0161310  60.4821510  55.4186160  80.4569000  61.5453800
  55.7894990  79.6736320  61.1389770  56.0588090  81.1458100  61.3671100
  52.4019920  81.8405580  66.9584120  51.5879760  82.2702740  67.2209910
  52.8094120  82.4523990  66.3453170  54.4645360  79.8953270  53.8584390
  54.7394200  80.8032150  53.7303610  54.2756100  79.8315800  54.7946380
  50.8620970  72.9198120  55.1538020  51.2805850  72.7329100  54.3134680
  50.5557030  72.0677170  55.4640950  54.3610700  77.8322260  58.8513820
  53.9854300  77.0650190  58.4195110  53.6313820  78.2144960  59.3388750
  38.9506460  78.5109400  65.4722870  39.3179500  78.4236800  66.3518890
  38.3817280  77.7475950  65.3729730  37.1268610  75.3355760  56.8744860
  36.2232690  75.5985960  56.6996520  37.6109230  75.6066930  56.0944820
  53.6361660  76.0579750  62.1521060  54.1599140  75.5642400  61.5211230
  54.2221080  76.1930110  62.8968630  53.8151380  76.1419620  65.6740610
  52.8654090  76.1083160  65.7885600  53.9964390  77.0519730  65.4390380
  39.6695820  74.3921300  54.7839240  40.3787520  73.9704520  54.2986520
  38.9535760  74.4596530  54.1522590  39.3169980  70.4460630  53.8241890
  40.0398110  70.9869570  54.1423110  39.5894500  70.1724050  52.9483430
  53.1261630  75.3153100  58.0913470  53.6220750  75.0823970  58.8762350
  52.9277700  74.4764940  57.6751110  39.0062170  69.6966820  63.7264510
  39.6538360  69.1464200  63.2859670  39.4264010  69.9509970  64.5480320
  54.5548790  73.9514050  60.6251150  54.4448070  73.7970090  61.5633420
  55.3156380  73.4234990  60.3826560  52.9014510  69.8908180  67.0834150
  53.5386730  70.5042320  67.4493340  53.0489400  69.9268840  66.1383380
  55.4439060  71.7821970  53.8657290  56.3688370  71.6503150  53.6575580
  55.4214850  71.8614790  54.8193740  55.5177550  72.5532630  56.4914000
  54.7229050  72.4877750  57.0206910  55.7220830  73.4883270  56.4799350
  52.4595970  86.5924180  60.4852390  53.0555040  86.2708750  59.8086810
  52.7174120  86.1196000  61.2765660  38.7594170  69.8522490  66.4689830
  38.4108990  70.3086310  67.2348010  38.4281870  68.9579620  66.5512260
  44.0664570  84.5801680  66.2352740  43.8255930  84.8476240  65.3483260
  45.0067210  84.7507410  66.2903600  55.3268730  86.5996060  67.0363380
  54.8327010  86.9964930  66.3190510  54.7182020  85.9745270  67.4300660
  49.6501590  69.2636570  65.9570830  48.7761430  69.5971680  65.7543760
  49.5412340  68.7909750  66.7822700  50.5573570  71.4707440  67.3412550
  50.2286930  70.6559200  66.9614280  51.5055870  71.4277250  67.2178240
  53.0108180  87.2419480  64.3150120  52.5511150  87.9935290  63.9408140
  52.3820640  86.5225950  64.2564920  39.8358800  83.3362720  66.7048840
  39.1092860  82.7168010  66.6374790  39.8967950  83.7303330  65.8346920
  43.4403900  85.5507720  63.4898250  43.9568920  84.9395080  62.9646510
  44.0901280  86.0536500  63.9809260  46.1799400  86.4416210  64.3167230
  46.4677210  86.1870510  63.4400240  46.6922620  85.8893570  64.9072800
  47.3976410  70.1806410  64.8963740  46.6148200  70.6551910  65.1760500
  47.1039340  69.2761240  64.7876920  51.9497480  70.8829510  62.9412830
  52.3905570  70.8274610  62.0934430  51.6805070  71.7987520  63.0123010
  53.8136050  70.5144750  60.9521650  53.7524450  69.5705970  60.8052670
  54.5928080  70.6224840  61.4975110  38.1188800  86.6537110  59.9145600
  37.9510840  86.0207790  60.6127490  37.2523310  86.8596510  59.5639790
  38.7416820  70.4853890  57.4177460  39.4996180  70.5982770  56.8441490
  38.2793990  71.3223090  57.3720890  45.2830630  72.5993160  60.4079770
  44.4705140  72.2250050  60.0675650  45.7872270  71.8438240  60.7100960
  49.7855610  69.2635610  61.6462840  50.3884980  69.8355820  62.1211360
  49.0448600  69.8275050  61.4236740  52.9290210  69.6657170  56.9203120
  53.1240840  70.5640620  57.1870550  52.1420080  69.4344250  57.4136070
  39.7251500  85.3470340  57.3595740  39.1999120  85.7278370  56.6557700
  39.6496080  85.9721110  58.0805450  41.1141970  71.0117940  55.9579430
  41.6434730  70.2247740  55.8287380  41.7470290  71.6909130  56.1914960
  43.3079810  70.7493080  59.0124820  42.6782550  70.0480390  59.1794950
  42.7684950  71.5097210  58.7957980  54.4816820  86.9057880  58.6809680
  54.6569010  86.2195620  58.0370600  53.7838390  87.4304930  58.2886350
  42.3244470  87.2952720  56.2344990  43.0563290  87.0112000  55.6868880
  42.5838140  87.0566000  57.1244370  41.4859260  83.4117450  56.2391320
  40.8568140  83.8802550  56.7877150  41.6007090  82.5666670  56.6737510
  48.9408980  77.4623110  42.3892520  48.8603030  76.5477720  42.1184230
  48.5273400  77.9590180  41.6832230  47.0727020  79.2402130  44.2701790
  46.2969120  78.7602570  44.5600360  47.7239950  78.5607780  44.0957950
  41.0892850  79.5521940  45.1477550  40.2577730  79.2970650  45.5474060
  41.6973830  79.6232710  45.8835470  51.0934450  83.6462320  43.0500920
  50.6315980  82.8749560  43.3788090  51.9060000  83.6728390  43.5553370
  41.0694110  83.5862030  45.3435570  41.3722150  82.6959770  45.1645790
  41.8137700  84.1432250  45.1157820  39.4984800  74.5123830  38.9319940
  38.6101500  74.8539800  38.8299820  39.7825990  74.3124150  38.0400770
  37.4617810  77.1129480  44.8159640  38.0333920  76.3451680  44.8163280
  37.4619350  77.4118240  43.9066250  47.3197760  85.9320330  42.6704910
  46.7009200  86.3877830  42.0999350  48.1749540  86.0871790  42.2694610
  46.5136010  81.9159320  44.2771950  46.4444290  80.9749260  44.1161080
  47.2755870  82.0060730  44.8494520  38.7042680  72.5213840  46.6028570
  38.5245520  71.6239590  46.8831330  38.3022760  73.0685710  47.2775520
  47.5441180  74.7229700  44.5040880  47.9206000  73.8501580  44.3914550
  47.4460690  75.0588400  43.6131320  41.6746190  73.0955330  39.9658320
  41.7812940  73.9959060  40.2727080  40.7638550  73.0473300  39.6752970
  39.3229350  75.0174340  45.2110910  40.0039460  75.2812710  45.8298310
  39.0077400  74.1775210  45.5448920  43.5153920  76.0641700  44.2983500
  44.0232140  76.5622670  44.9388520  44.0467160  75.2876900  44.1222860
  55.6164850  74.2346890  48.0012850  54.9117020  74.6228600  47.4827960
  55.8822770  74.9297180  48.6033780  41.7990020  70.7040260  48.5646920
  41.8008460  71.2212650  47.7592820  40.9694330  70.2270440  48.5416850
  48.1861110  80.8159570  40.0636820  47.5678380  81.2809020  39.4999540
  48.6984360  81.5087050  40.4806330  43.0492870  80.3435440  46.7420420
  42.7162250  80.9704360  47.3841490  43.2259550  80.8697320  45.9622090
  41.4805350  72.4150220  46.5717370  41.8222160  73.2592270  46.2771240
  40.5421160  72.5633960  46.6882710  42.2611970  82.3116240  48.5569600
  42.8785970  82.9867320  48.2754050  41.4005090  82.7204220  48.4657100
  37.5544310  81.5016100  37.4376450  37.1772290  81.9903200  36.7061350
  37.8117380  82.1741380  38.0682980  53.1789560  83.7755650  46.4724240
  52.4953080  84.4454760  46.4640910  53.7183850  83.9736300  45.7069100
  50.7148300  85.6199780  45.1869420  50.7275460  85.2162070  44.3191680
  50.1623520  86.3947070  45.0830850  52.0093720  82.3416000  40.2759590
  51.8990050  81.3990330  40.4009010  52.0061970  82.7031640  41.1622350
  50.1133740  80.5229620  46.5152030  50.5302530  80.3089730  45.6805490
  50.8373560  80.7802410  47.0860650  47.5514000  77.9681320  39.6322080
  46.6243280  77.9018700  39.8610550  47.7038820  78.9061450  39.5177320
  47.5383080  74.2398320  36.6289240  46.5986750  74.4012280  36.7141700
  47.8566340  74.9584000  36.0825230  54.0595840  78.9216840  46.6068270
  53.2314470  78.9909930  46.1318400  54.6546320  79.5071150  46.1384100
  51.0237850  75.7086160  47.5523140  50.6109030  76.5339870  47.8063130
  50.2913800  75.1231200  47.3599500  43.1570640  78.4946060  42.4141810
  42.7527640  77.7823310  41.9187710  43.2433760  78.1499300  43.3029850
  43.6252340  82.1813620  44.5781020  43.3280630  81.5759090  43.8988800
  44.5752160  82.2190930  44.4670380  41.8699260  75.2689270  46.1940850
  42.4213850  75.3784610  45.4194100  42.3842770  75.6426870  46.9096080
  51.7137950  85.7545490  48.2404120  51.2368510  86.5617680  48.0476730
  51.0299740  85.1023820  48.3930330  42.7170770  81.9195310  51.2288820
  41.8199300  82.1435280  51.4762220  42.7423640  82.0430250  50.2800220
  49.7575990  78.7688430  37.1430080  50.1969270  77.9310860  36.9967900
  50.4704410  79.4017830  37.2294220  41.5441990  78.7908630  49.8046190
  41.4049760  79.6631430  50.1733590  40.6623350  78.4481440  49.6594130
  47.8671370  83.7084500  41.1111320  48.3067280  84.4508830  40.6966710
  47.8058260  83.9511070  42.0350280  43.3422340  84.7330330  52.0131340
  43.3137770  85.1373280  51.1459770  43.1787310  83.8040690  51.8502940
  39.8575270  77.3891040  39.9148460  39.7372870  78.1153130  39.3029730
  39.5476160  76.6193950  39.4376370  55.2937160  85.5157430  53.3095510
  55.7696880  85.9940320  53.9884590  55.9144320  85.4474920  52.5841010
  37.4960640  80.5606180  45.7217100  37.5741060  80.6954950  44.7772820
  38.1102320  79.8522070  45.9145220  38.7408270  82.2606370  42.1323280
  38.3336350  82.4020960  41.2776880  39.6321280  81.9766530  41.9294490
  54.6970410  82.7070280  50.4695520  54.8233470  82.4682160  49.5512700
  54.7391790  81.8754820  50.9417600  48.5587150  86.4098280  49.0390330
  49.0731820  86.3206290  49.8412760  47.7156230  86.7557980  49.3318240
  50.5341550  86.6953620  38.4674330  50.3742690  86.4056560  39.3656160
  50.3688260  85.9193750  37.9319560  43.0129930  86.4752150  40.2445950
  42.8372410  85.5587690  40.0313750  42.1585670  86.8339440  40.4843750
  50.2367680  84.2041180  37.0272330  49.5432840  84.2018470  36.3674610
  50.9790540  83.7800500  36.5966500  49.8017610  85.8303890  41.1020820
  50.2574560  85.0493270  41.4159440  50.1410130  86.5410710  41.6462000
  54.5494420  74.7602740  51.4345260  53.9338690  75.2682410  50.9060720
  54.2290840  73.8601070  51.3771200  37.5520160  81.6020350  48.2611560
  37.7151200  81.1325710  47.4430930  38.0172610  81.0943910  48.9260400
  42.3238930  70.7326110  43.2972130  41.8807080  71.5135650  42.9656650
  42.8823920  71.0556000  44.0043070  46.6108740  73.5994630  48.9007450
  46.1488110  73.8077650  49.7127390  46.2086850  72.7853980  48.5978120
  51.6113250  74.8203580  50.0304110  50.7606840  74.5209330  50.3513180
  51.4515040  75.0645590  49.1187930  48.7062960  76.3205330  52.1302900
  49.0316370  75.4869080  51.7905130  49.4943290  76.8433850  52.2781230
  44.3614830  71.2773440  45.1561730  44.6587160  72.1836270  45.0753750
  44.9100390  70.7892220  44.5421300  42.1153150  75.8559680  41.0253380
  41.8894070  75.6396850  41.9300000  41.3345680  76.2888140  40.6799350
  49.3450910  75.8623050  39.6244030  48.7459800  76.5858850  39.4407650
  49.8930520  75.7999830  38.8420480  44.5552360  76.7545260  51.6913650
  44.4595960  75.8139990  51.5414050  45.3984340  76.9760330  51.2961720
  47.9515780  74.4986590  41.6547310  48.3445350  74.8158790  40.8416000
  48.3132630  73.6198470  41.7691830  39.6862900  73.1658930  49.8447430
  39.2926290  74.0134140  50.0520210  38.9981300  72.5285300  50.0356070
  46.2607950  73.2493900  52.9144170  45.5706270  73.0566100  53.5490260
  47.0040250  73.5328540  53.4468470  36.9879950  71.0887390  43.8777510
  36.6993000  71.6590250  44.5902490  37.7325710  70.6091840  44.2408740
  37.1750180  75.0307510  35.0880230  37.0924850  75.9738270  35.2295220
  36.8233240  74.8882420  34.2092580  48.5370920  77.0892340  45.7498090
  47.8052040  77.5979150  46.0988190  48.1395260  76.2722320  45.4486870
  44.9748310  73.7646540  44.1550580  44.9784370  73.3236490  43.3055120
  45.8699430  74.0863870  44.2622400  40.8250690  73.6473030  43.1144790
  40.4850740  74.1248260  43.8711840  40.0628010  73.1938150  42.7545890
  45.0368460  74.7658620  37.1457340  45.1581280  74.7245100  38.0943160
  44.6516970  75.6282770  36.9904070  48.9996830  72.5426020  45.1621030
  49.0169570  72.9934670  46.0062880  48.7512410  71.6431660  45.3754470
  44.0489960  77.0759760  36.5440640  43.4806860  76.6278010  35.9176550
  44.7578960  77.4352540  36.0105790  52.4267580  69.9558200  51.0007410
  52.7513350  69.2247860  51.5265390  52.4624090  69.6371840  50.0988400
  39.1259140  80.9771780  50.4207370  38.7413930  80.3365450  51.0190330
  39.4371330  81.6807900  50.9902100  45.2756280  77.8248320  45.9015990
  45.6426410  77.3506890  46.6477330  45.0861340  78.6989890  46.2424330
  38.1396770  72.5692010  42.0309460  37.8543690  72.2047680  42.8688080
  38.0775630  71.8372470  41.4172600  43.0655650  76.8656960  48.2200200
  42.7612720  77.7448940  48.4450560  44.0202110  76.9256750  48.2557640
  41.5937440  81.0717950  38.8167050  40.8199700  80.5315570  38.6565770
  42.3232070  80.5524560  38.4784810  52.3525420  80.0683310  44.6093440
  53.0724540  80.5638600  44.2189550  52.1507240  79.3901200  43.9647310
  47.7344220  80.1392370  50.4962440  47.6681530  79.2188040  50.2420030
  47.1049360  80.2367810  51.2107080  41.6374840  80.7398330  42.4545860
  42.1553510  79.9366590  42.4002750  41.1858860  80.6777470  43.2962690
  46.5244340  82.0064610  37.7273160  46.8660040  82.7506840  37.2316480
  45.6957050  82.3195730  38.0897990  39.1219380  77.7059700  49.3671560
  38.7634320  78.3713550  49.9544900  38.8273940  76.8743250  49.7384180
  42.3232500  78.1643940  52.2511110  42.0232640  78.3101120  51.3538930
  43.0943740  77.6049230  52.1584500  47.6660950  82.9612940  50.2466240
  47.6805490  82.0293900  50.0285150  46.9586050  83.0472700  50.8856010
  53.8772160  79.6020280  49.5934820  53.1520350  80.1949060  49.3964210
  54.4047620  79.5943820  48.7948190  53.8285270  83.9995020  39.2446980
  53.1861430  83.3450640  39.5190700  53.4415930  84.4050110  38.4687650
  49.4071750  81.3280450  43.0918670  49.7595570  80.7308580  42.4320040
  48.5234080  81.0024680  43.2626920  45.4935030  82.0878140  40.4989080
  46.1806160  82.6347350  40.8796670  44.7067450  82.6318870  40.5338690
  37.6327430  77.7050960  35.9906160  38.5022280  77.9875760  36.2742080
  37.1417750  78.5186830  35.8754970  44.7962240  79.0924170  40.1114440
  45.2525020  79.9029420  40.3374630  44.4450450  78.7747310  40.9432930
  47.0994850  84.6030510  47.3406740  47.7437070  84.8089890  48.0180160
  47.4624290  83.8418910  46.8877590  48.3726930  82.6062860  46.0584190
  49.0149160  81.9056020  46.1716360  48.8976280  83.3861300  45.8781080
  52.2182650  82.8911480  35.7823330  51.9920230  82.1741920  36.3747970
  51.8278850  82.6423920  34.9445080  50.1464550  83.4057760  49.2620250
  50.4820790  83.9924450  49.9398170  49.2264890  83.2750470  49.4918040
  37.9998680  86.9178340  36.5567790  38.3596320  87.5167680  35.9025060
  37.8591020  87.4638230  37.3302820  37.6967950  71.1952940  50.0443660
  36.9826470  71.3949860  50.6496270  38.1162990  70.4192510  50.4158460
  51.7998900  80.8083420  37.4437490  51.5120600  81.2696110  38.2315370
  52.5951070  80.3481190  37.7121710  37.9840540  85.1833200  51.0310190
  38.0931660  84.2427940  50.8905580  37.3321100  85.4487950  50.3823920
  45.9753130  83.4549090  52.4308310  45.6550000  82.7358330  52.9754000
  45.3011490  84.1304160  52.5044370  44.0167300  84.3009540  37.3741460
  44.0077400  85.0339230  36.7585970  43.0965660  84.0541120  37.4668420
  39.6173940  79.5224430  38.1188220  39.0101890  80.2623330  38.1283520
  40.0923290  79.6123790  37.2926420  49.1906730  73.6875250  47.7945110
  49.5587550  72.8670460  48.1224680  48.3304930  73.7477140  48.2100760
  47.0026900  84.3637780  36.0366650  47.1038880  84.1601770  35.1068630
  46.1028640  84.1096060  36.2414430  44.5252790  74.9218140  40.0190550
  43.8168940  75.3904480  40.4604160  44.8097270  74.2640150  40.6535740
  46.1508720  76.3414840  48.0183080  46.6493970  76.8160660  48.6834930
  46.2931670  75.4178360  48.2253110  45.6445010  86.8824100  40.7314320
  45.8986510  86.8445490  39.8093690  44.6957490  86.7557430  40.7242570
  42.7287810  73.2303220  37.3941260  43.5778340  73.6673370  37.3281450
  42.3619080  73.5423480  38.2213320  53.3575580  72.5582800  48.8611470
  52.8549180  73.2988200  49.2005280  54.1732240  72.9466800  48.5448260
  41.6279230  79.4835580  35.8676790  42.3942500  79.3716940  36.4302220
  41.7053920  78.7873550  35.2153560  40.3225990  76.9160650  36.5509680
  40.4029580  75.9688160  36.6627080  41.2145740  77.2467530  36.6570340
  53.6523170  84.9724830  43.9827090  53.7770590  85.7956000  44.4550900
  54.5188730  84.7615560  43.6351240  41.1240700  87.0656040  43.6544220
  41.8603180  86.5171500  43.9252790  41.5081620  87.9312050  43.5150210
  38.0086180  83.1329610  39.5285730  37.0825960  83.3750750  39.5191140
  38.4742610  83.9603870  39.4070480  40.1298980  86.2502110  52.8429800
  40.9311710  86.5714160  53.2565200  39.6150800  85.8897690  53.5649710
  44.2343010  86.2386350  35.4769790  45.0271620  86.5275180  35.0251580
  43.7147360  85.8078520  34.7982270  48.9663610  82.3581980  52.7905210
  48.3601770  82.3813580  52.0500960  48.6617720  81.6265020  53.3272460
  50.3963980  86.0862270  51.4014620  51.3485730  86.0020290  51.3514860
  50.2492200  86.7503980  52.0748410  53.2873180  85.4656480  36.9006530
  53.0014690  85.0521620  36.0860710  53.0892730  86.3944190  36.7807050
  37.8496790  78.7375570  51.7865850  38.3535810  78.1582850  52.3582080
  37.1104210  79.0215800  52.3242220  44.7520410  81.4589760  35.3412140
  44.6471050  80.8442110  36.0673520  44.5844630  80.9355650  34.5575150
  44.9034730  80.1446560  51.3201370  44.1380400  80.7131560  51.2356040
  45.0850690  79.8522770  50.4269600  47.9923140  80.5209790  35.9454130
  47.4433240  80.9679090  36.5896870  48.6142400  80.0159040  36.4691800
  52.0458080  81.8751890  51.8776390  52.7867550  82.2127650  51.3743850
  51.2830760  82.0443950  51.3246160  39.8819870  76.8805160  52.6815920
  39.9225210  76.5819030  53.5901150  40.7365370  77.2812770  52.5223440
  43.6598260  79.4800710  37.8419430  44.0814680  79.3140580  38.6850820
  43.7849100  78.6700940  37.3474570  41.8225680  75.4597260  50.6490410
  41.2922140  74.9688210  50.0213750  42.4913750  75.8881460  50.1148340
  46.1725900  78.5038320  35.0896530  46.6931560  77.7887340  34.7237680
  46.8194300  79.1424190  35.3897040  50.7203740  79.9266720  50.4131600
  51.1344760  80.0811800  51.2622020  49.7854740  80.0521940  50.5757380
  51.1925910  77.2662880  52.4170750  51.7746680  76.5115200  52.3291230
  51.3687680  77.7970320  51.6402230  42.3097980  72.4259630  50.7287700
  42.2154850  71.8080380  50.0038570  41.7295370  73.1525920  50.5017610
  45.0759420  70.9832870  47.7615090  44.6276720  71.0057130  46.9160640
  44.4424620  70.5851890  48.3585390  45.4818970  79.8787200  48.3827530
  45.9007080  80.7219930  48.2103770  44.5627600  80.0159240  48.1534310
  47.8182870  77.6103380  49.7665370  47.9379080  77.0144520  50.5060210
  48.6776870  77.6473070  49.3466670  50.1570770  78.1640570  48.3427880
  49.6305990  78.6883190  47.7393020  50.5002110  78.7967960  48.9737610
  42.5557160  75.5533940  34.7877590  42.3546220  74.6901300  35.1490930
  42.3849210  75.4667300  33.8499190  43.3326390  86.1840210  49.4985260
  42.7947480  86.9086270  49.1793960  43.5860350  85.7070550  48.7082600
  44.5851640  74.1524730  51.0241190  45.1751330  73.8440580  51.7119010
  43.7671880  73.6804480  51.1801090  49.4045070  73.7690540  51.2574210
  48.7160590  73.1072080  51.1924200  50.1251090  73.3228810  51.7022670
  46.1888600  87.4191420  49.7571910  46.1147300  88.3226560  50.0644280
  45.2867440  87.1003320  49.7293980  46.7373930  86.5849930  37.3798270
  47.6324720  86.9234900  37.4017030  46.7691560  85.8629340  36.7522550
  40.3770090  81.9576980  35.6085270  40.8144960  82.5006650  36.2642850
  40.8617820  81.1323930  35.6181610  37.5915890  84.7466010  43.0605530
  37.9218900  83.8787070  42.8284170  38.0206890  84.9524530  43.8910490
  42.1877810  83.0775020  40.7207500  41.8873350  82.9539990  41.6211410
  42.0815300  82.2183610  40.3123230  38.0806100  85.6136600  45.7987160
  37.6437090  85.7937400  46.6311310  38.6483780  86.3711220  45.6568880
  53.7168280  85.1153600  50.0864470  53.1170270  85.1746160  49.3428390
  53.8462180  84.1758580  50.2161320  54.9569730  82.8571420  35.4234180
  54.1262690  82.9248070  35.8941410  55.1341560  83.7475540  35.1201040
  37.9130530  78.1256830  42.1576040  37.2579370  77.8568470  41.5135740
  38.7508480  78.0161310  41.7078020  55.4186160  80.4569000  42.7710310
  55.7894990  79.6736320  42.3646280  56.0588090  81.1458100  42.5927610
  52.4019920  81.8405580  48.1840630  51.5879760  82.2702740  48.4466420
  52.8094120  82.4523990  47.5709680  38.9506460  78.5109400  46.6979380
  39.3179500  78.4236800  47.5775400  38.3817280  77.7475950  46.5986240
  53.7510320  76.9793780  49.7109850  53.5196410  76.7506530  48.8107800
  54.0114870  77.8993330  49.6654740  38.5022460  75.4218490  50.6037800
  37.6078510  75.3885250  50.9431510  39.0420010  75.6205280  51.3689050
  52.1898390  72.2050210  52.4889550  53.0668570  72.2133610  52.8723550
  52.2019230  71.4681050  51.8781900  37.1268610  75.3355760  38.1001370
  36.2232690  75.5985960  37.9253030  37.6109230  75.6066930  37.3201330
  53.8151380  76.1419620  46.8997120  52.8654090  76.1083160  47.0142110
  53.9964390  77.0519730  46.6646890  39.6695820  74.3921300  36.0095750
  40.3787520  73.9704520  35.5243030  38.9535760  74.4596530  35.3779100
  39.0062170  69.6966820  44.9521020  39.6538360  69.1464200  44.5116180
  39.4264010  69.9509970  45.7736830  52.9014510  69.8908180  48.3090660
  53.5386730  70.5042320  48.6749850  53.0489400  69.9268840  47.3639890
  52.4595970  86.5924180  41.7108900  53.0555040  86.2708750  41.0343320
  52.7174120  86.1196000  42.5022170  38.7594170  69.8522490  47.6946340
  38.4108990  70.3086310  48.4604520  38.4281870  68.9579620  47.7768770
  40.3658540  83.0242090  51.8599530  40.3228170  82.6535000  52.7413990
  40.4969550  83.9619660  52.0001350  44.0664570  84.5801680  47.4609250
  43.8255930  84.8476240  46.5739770  45.0067210  84.7507410  47.5160110
  46.2718990  71.0434370  51.2165760  46.2107880  71.6356200  51.9661170
  47.2119370  70.9360330  51.0716020  48.9093550  70.7004430  50.8558050
  49.5233960  71.0183720  50.1939130  49.4543110  70.2153020  51.4753910
  55.3268730  86.5996060  48.2619890  54.8327010  86.9964930  47.5447020
  54.7182020  85.9745270  48.6557170  39.4314810  69.3798690  50.9697110
  39.9797800  69.1986740  50.2063220  39.4970120  68.5892800  51.5053420
  40.2046570  85.9704340  48.9797310  39.6106890  85.8389040  49.7187350
  40.1970410  85.1342480  48.5139410  49.6501590  69.2636570  47.1827340
  48.7761430  69.5971680  46.9800270  49.5412340  68.7909750  48.0079210
  50.5573570  71.4707440  48.5669060  50.2286930  70.6559200  48.1870790
  51.5055870  71.4277250  48.4434750  53.0108180  87.2419480  45.5406630
  52.5511150  87.9935290  45.1664650  52.3820640  86.5225950  45.4821430
  39.8358800  83.3362720  47.9305350  39.1092860  82.7168010  47.8631300
  39.8967950  83.7303330  47.0603430  43.4403900  85.5507720  44.7154760
  43.9568920  84.9395080  44.1903020  44.0901280  86.0536500  45.2065770
  46.1799400  86.4416210  45.5423740  46.4677210  86.1870510  44.6656750
  46.6922620  85.8893570  46.1329310  47.3976410  70.1806410  46.1220250
  46.6148200  70.6551910  46.4017010  47.1039340  69.2761240  46.0133430
  38.1188800  86.6537110  41.1402110  37.9510840  86.0207790  41.8384000
  37.2523310  86.8596510  40.7896300  39.7251500  85.3470340  38.5852250
  39.1999120  85.7278370  37.8814210  39.6496080  85.9721110  39.3061960
  46.2471760  87.3632310  52.9091940  47.1739070  87.1276580  52.9527900
  46.2322190  88.1904310  52.4277970  54.4816820  86.9057880  39.9066190
  54.6569010  86.2195620  39.2627110  53.7838390  87.4304930  39.5142860
  43.4335370  70.0277060  52.6733820  43.1519640  70.5310660  51.9094640
  43.8155070  69.2298810  52.3075950  42.3244470  87.2952720  37.4601500
  43.0563290  87.0112000  36.9125390  42.5838140  87.0566000  38.3500880
  41.4859260  83.4117450  37.4647830  40.8568140  83.8802550  38.0133660
  41.6007090  82.5666670  37.8994020  50.0350830  69.4430640  53.2514290
  49.9216280  69.7625250  54.1465810  50.8520570  69.8443150  52.9551570
  52.8149320  86.5902170  52.7332980  53.6074640  86.0951400  52.5258940
  53.1082470  87.2692310  53.3408590  48.9408980  77.4623110  23.6149030
  48.8603030  76.5477720  23.3440740  48.5273400  77.9590180  22.9088740
  47.0727020  79.2402130  25.4958300  46.2969120  78.7602570  25.7856870
  47.7239950  78.5607780  25.3214460  41.0892850  79.5521940  26.3734060
  40.2577730  79.2970650  26.7730570  41.6973830  79.6232710  27.1091980
  51.0934450  83.6462320  24.2757430  50.6315980  82.8749560  24.6044600
  51.9060000  83.6728390  24.7809880  41.0694110  83.5862030  26.5692080
  41.3722150  82.6959770  26.3902300  41.8137700  84.1432250  26.3414330
  39.4984800  74.5123830  20.1576450  38.6101500  74.8539800  20.0556330
  39.7825990  74.3124150  19.2657280  37.4617810  77.1129480  26.0416150
  38.0333920  76.3451680  26.0419790  37.4619350  77.4118240  25.1322760
  47.3197760  85.9320330  23.8961420  46.7009200  86.3877830  23.3255860
  48.1749540  86.0871790  23.4951120  46.5136010  81.9159320  25.5028460
  46.4444290  80.9749260  25.3417590  47.2755870  82.0060730  26.0751030
  38.7042680  72.5213840  27.8285080  38.5245520  71.6239590  28.1087840
  38.3022760  73.0685710  28.5032030  47.5441180  74.7229700  25.7297390
  47.9206000  73.8501580  25.6171060  47.4460690  75.0588400  24.8387830
  41.6746190  73.0955330  21.1914830  41.7812940  73.9959060  21.4983590
  40.7638550  73.0473300  20.9009480  51.3265300  72.2180140  22.6625730
  52.1474920  71.7276710  22.7051210  51.3599380  72.8077800  23.4157570
  39.3229350  75.0174340  26.4367420  40.0039460  75.2812710  27.0554820
  39.0077400  74.1775210  26.7705430  43.5153920  76.0641700  25.5240010
  44.0232140  76.5622670  26.1645030  44.0467160  75.2876900  25.3479370
  48.1861110  80.8159570  21.2893330  47.5678380  81.2809020  20.7256050
  48.6984360  81.5087050  21.7062840  43.0492870  80.3435440  27.9676930
  42.7162250  80.9704360  28.6098000  43.2259550  80.8697320  27.1878600
  41.4805350  72.4150220  27.7973880  41.8222160  73.2592270  27.5027750
  40.5421160  72.5633960  27.9139220  42.2611970  82.3116240  29.7826110
  42.8785970  82.9867320  29.5010560  41.4005090  82.7204220  29.6913610
  37.5544310  81.5016100  18.6632960  37.1772290  81.9903200  17.9317860
  37.8117380  82.1741380  19.2939490  53.1789560  83.7755650  27.6980750
  52.4953080  84.4454760  27.6897420  53.7183850  83.9736300  26.9325610
  50.7148300  85.6199780  26.4125930  50.7275460  85.2162070  25.5448190
  50.1623520  86.3947070  26.3087360  52.0093720  82.3416000  21.5016100
  51.8990050  81.3990330  21.6265520  52.0061970  82.7031640  22.3878860
  50.1133740  80.5229620  27.7408540  50.5302530  80.3089730  26.9062000
  50.8373560  80.7802410  28.3117160  47.5514000  77.9681320  20.8578590
  46.6243280  77.9018700  21.0867060  47.7038820  78.9061450  20.7433830
  47.5383080  74.2398320  17.8545750  46.5986750  74.4012280  17.9398210
  47.8566340  74.9584000  17.3081740  51.5811290  79.5301620  21.3613840
  50.9623710  79.1921170  20.7140140  51.5635740  78.8861380  22.0693030
  43.1570640  78.4946060  23.6398320  42.7527640  77.7823310  23.1444220
  43.2433760  78.1499300  24.5286360  43.6252340  82.1813620  25.8037530
  43.3280630  81.5759090  25.1245310  44.5752160  82.2190930  25.6926890
  41.8699260  75.2689270  27.4197360  42.4213850  75.3784610  26.6450610
  42.3842770  75.6426870  28.1352590  51.7137950  85.7545490  29.4660630
  51.2368510  86.5617680  29.2733240  51.0299740  85.1023820  29.6186840
  42.7170770  81.9195310  32.4545330  41.8199300  82.1435280  32.7018730
  42.7423640  82.0430250  31.5056730  49.7575990  78.7688430  18.3686590
  50.1969270  77.9310860  18.2224410  50.4704410  79.4017830  18.4550730
  41.5441990  78.7908630  31.0302700  41.4049760  79.6631430  31.3990100
  40.6623350  78.4481440  30.8850640  47.8671370  83.7084500  22.3367830
  48.3067280  84.4508830  21.9223220  47.8058260  83.9511070  23.2606790
  43.3422340  84.7330330  33.2387850  43.3137770  85.1373280  32.3716280
  43.1787310  83.8040690  33.0759450  53.3393130  70.0231240  16.6827630
  53.0265790  70.1158070  17.5826700  54.1005600  70.6012270  16.6325060
  39.8575270  77.3891040  21.1404970  39.7372870  78.1153130  20.5286240
  39.5476160  76.6193950  20.6632880  55.2937160  85.5157430  34.5352020
  55.7696880  85.9940320  35.2141100  55.9144320  85.4474920  33.8097520
  37.4960640  80.5606180  26.9473610  37.5741060  80.6954950  26.0029330
  38.1102320  79.8522070  27.1401730  38.7408270  82.2606370  23.3579790
  38.3336350  82.4020960  22.5033390  39.6321280  81.9766530  23.1551000
  54.6970410  82.7070280  31.6952030  54.8233470  82.4682160  30.7769210
  54.7391790  81.8754820  32.1674110  48.5587150  86.4098280  30.2646840
  49.0731820  86.3206290  31.0669270  47.7156230  86.7557980  30.5574750
  50.5341550  86.6953620  19.6930840  50.3742690  86.4056560  20.5912670
  50.3688260  85.9193750  19.1576070  43.0129930  86.4752150  21.4702460
  42.8372410  85.5587690  21.2570260  42.1585670  86.8339440  21.7100260
  50.2367680  84.2041180  18.2528840  49.5432840  84.2018470  17.5931120
  50.9790540  83.7800500  17.8223010  49.8017610  85.8303890  22.3277330
  50.2574560  85.0493270  22.6415950  50.1410130  86.5410710  22.8718510
  37.5520160  81.6020350  29.4868070  37.7151200  81.1325710  28.6687440
  38.0172610  81.0943910  30.1516910  46.6108740  73.5994630  30.1263960
  46.1488110  73.8077650  30.9383900  46.2086850  72.7853980  29.8234630
  48.7062960  76.3205330  33.3559410  49.0316370  75.4869080  33.0161640
  49.4943290  76.8433850  33.5037740  45.4397750  70.3536810  19.4034470
  44.8151930  70.3496680  20.1287780  45.3527870  69.4867770  19.0070440
  42.1153150  75.8559680  22.2509890  41.8894070  75.6396850  23.1556510
  41.3345680  76.2888140  21.9055860  49.3450910  75.8623050  20.8500540
  48.7459800  76.5858850  20.6664160  49.8930520  75.7999830  20.0676990
  44.5552360  76.7545260  32.9170160  44.4595960  75.8139990  32.7670560
  45.3984340  76.9760330  32.5218230  47.9515780  74.4986590  22.8803820
  48.3445350  74.8158790  22.0672510  48.3132630  73.6198470  22.9948340
  39.6862900  73.1658930  31.0703940  39.2926290  74.0134140  31.2776720
  38.9981300  72.5285300  31.2612580  46.2607950  73.2493900  34.1400680
  45.5706270  73.0566100  34.7746770  47.0040250  73.5328540  34.6724980
  37.1750180  75.0307510  16.3136740  37.0924850  75.9738270  16.4551730
  36.8233240  74.8882420  15.4349090  48.5370920  77.0892340  26.9754600
  47.8052040  77.5979150  27.3244700  48.1395260  76.2722320  26.6743380
  44.9748310  73.7646540  25.3807090  44.9784370  73.3236490  24.5311630
  45.8699430  74.0863870  25.4878910  40.8250690  73.6473030  24.3401300
  40.4850740  74.1248260  25.0968350  40.0628010  73.1938150  23.9802400
  45.0368460  74.7658620  18.3713850  45.1581280  74.7245100  19.3199670
  44.6516970  75.6282770  18.2160580  48.9996830  72.5426020  26.3877540
  49.0169570  72.9934670  27.2319390  48.7512410  71.6431660  26.6010980
  44.0489960  77.0759760  17.7697150  43.4806860  76.6278010  17.1433060
  44.7578960  77.4352540  17.2362300  39.1259140  80.9771780  31.6463880
  38.7413930  80.3365450  32.2446840  39.4371330  81.6807900  32.2158610
  45.2756280  77.8248320  27.1272500  45.6426410  77.3506890  27.8733840
  45.0861340  78.6989890  27.4680840  38.1396770  72.5692010  23.2565970
  37.8543690  72.2047680  24.0944590  38.0775630  71.8372470  22.6429110
  43.0655650  76.8656960  29.4456710  42.7612720  77.7448940  29.6707070
  44.0202110  76.9256750  29.4814150  41.5937440  81.0717950  20.0423560
  40.8199700  80.5315570  19.8822280  42.3232070  80.5524560  19.7041320
  52.3525420  80.0683310  25.8349950  53.0724540  80.5638600  25.4446060
  52.1507240  79.3901200  25.1903820  47.8135360  71.4621270  19.9779340
  46.9999970  70.9634440  19.9024650  47.6197310  72.3019520  19.5615690
  47.7344220  80.1392370  31.7218950  47.6681530  79.2188040  31.4676540
  47.1049360  80.2367810  32.4363590  50.5283750  75.8340920  18.2741500
  51.4163370  76.1458150  18.0992840  50.4988840  74.9613170  17.8822080
  41.6374840  80.7398330  23.6802370  42.1553510  79.9366590  23.6259260
  41.1858860  80.6777470  24.5219200  46.5244340  82.0064610  18.9529670
  46.8660040  82.7506840  18.4572990  45.6957050  82.3195730  19.3154500
  39.1219380  77.7059700  30.5928070  38.7634320  78.3713550  31.1801410
  38.8273940  76.8743250  30.9640690  42.3232500  78.1643940  33.4767620
  42.0232640  78.3101120  32.5795440  43.0943740  77.6049230  33.3841010
  47.6660950  82.9612940  31.4722750  47.6805490  82.0293900  31.2541660
  46.9586050  83.0472700  32.1112520  52.7998020  77.1452760  17.7421360
  52.7161740  77.5766980  16.8917800  53.5192210  77.6051110  18.1748180
  53.8285270  83.9995020  20.4703490  53.1861430  83.3450640  20.7447210
  53.4415930  84.4050110  19.6944160  49.4071750  81.3280450  24.3175180
  49.7595570  80.7308580  23.6576550  48.5234080  81.0024680  24.4883430
  45.4935030  82.0878140  21.7245590  46.1806160  82.6347350  22.1053180
  44.7067450  82.6318870  21.7595200  37.6327430  77.7050960  17.2162670
  38.5022280  77.9875760  17.4998590  37.1417750  78.5186830  17.1011480
  44.7962240  79.0924170  21.3370950  45.2525020  79.9029420  21.5631140
  44.4450450  78.7747310  22.1689440  47.0994850  84.6030510  28.5663250
  47.7437070  84.8089890  29.2436670  47.4624290  83.8418910  28.1134100
  40.6974020  69.4361820  21.8093470  40.5688650  69.4279720  22.7578390
  39.8736040  69.7744910  21.4584480  48.3726930  82.6062860  27.2840700
  49.0149160  81.9056020  27.3972870  48.8976280  83.3861300  27.1037590
  52.2182650  82.8911480  17.0079840  51.9920230  82.1741920  17.6004480
  51.8278850  82.6423920  16.1701590  50.1464550  83.4057760  30.4876760
  50.4820790  83.9924450  31.1654680  49.2264890  83.2750470  30.7174550
  37.9998680  86.9178340  17.7824300  38.3596320  87.5167680  17.1281570
  37.8591020  87.4638230  18.5559330  51.7998900  80.8083420  18.6694000
  51.5120600  81.2696110  19.4571880  52.5951070  80.3481190  18.9378220
  37.9840540  85.1833200  32.2566700  38.0931660  84.2427940  32.1162090
  37.3321100  85.4487950  31.6080430  45.9753130  83.4549090  33.6564820
  45.6550000  82.7358330  34.2010510  45.3011490  84.1304160  33.7300880
  44.0167300  84.3009540  18.5997970  44.0077400  85.0339230  17.9842480
  43.0965660  84.0541120  18.6924930  39.6173940  79.5224430  19.3444730
  39.0101890  80.2623330  19.3540030  40.0923290  79.6123790  18.5182930
  49.1906730  73.6875250  29.0201620  49.5587550  72.8670460  29.3481190
  48.3304930  73.7477140  29.4357270  52.5568760  72.6432190  19.8289180
  51.9281920  72.7477860  19.1147410  52.0620680  72.8628970  20.6183060
  47.0026900  84.3637780  17.2623160  47.1038880  84.1601770  16.3325140
  46.1028640  84.1096060  17.4670940  44.5252790  74.9218140  21.2447060
  43.8168940  75.3904480  21.6860670  44.8097270  74.2640150  21.8792250
  46.1508720  76.3414840  29.2439590  46.6493970  76.8160660  29.9091440
  46.2931670  75.4178360  29.4509620  48.5568220  71.6468800  22.6842850
  48.4336000  71.6654930  21.7352360  49.5052780  71.6947740  22.8041250
  45.6445010  86.8824100  21.9570830  45.8986510  86.8445490  21.0350200
  44.6957490  86.7557430  21.9499080  42.7287810  73.2303220  18.6197770
  43.5778340  73.6673370  18.5537960  42.3619080  73.5423480  19.4469830
  51.6497590  77.8015980  23.5329340  50.7087730  77.8166210  23.7077030
  51.9641660  77.0151940  23.9789640  41.6279230  79.4835580  17.0933300
  42.3942500  79.3716940  17.6558730  41.7053920  78.7873550  16.4410070
  40.3225990  76.9160650  17.7766190  40.4029580  75.9688160  17.8883590
  41.2145740  77.2467530  17.8826850  53.6523170  84.9724830  25.2083600
  53.7770590  85.7956000  25.6807410  54.5188730  84.7615560  24.8607750
  41.1240700  87.0656040  24.8800730  41.8603180  86.5171500  25.1509300
  41.5081620  87.9312050  24.7406720  38.0086180  83.1329610  20.7542240
  37.0825960  83.3750750  20.7447650  38.4742610  83.9603870  20.6326990
  40.1298980  86.2502110  34.0686310  40.9311710  86.5714160  34.4821710
  39.6150800  85.8897690  34.7906220  44.2343010  86.2386350  16.7026300
  45.0271620  86.5275180  16.2508090  43.7147360  85.8078520  16.0238780
  48.9663610  82.3581980  34.0161720  48.3601770  82.3813580  33.2757470
  48.6617720  81.6265020  34.5528970  50.3963980  86.0862270  32.6271130
  51.3485730  86.0020290  32.5771370  50.2492200  86.7503980  33.3004920
  53.2873180  85.4656480  18.1263040  53.0014690  85.0521620  17.3117220
  53.0892730  86.3944190  18.0063560  37.8496790  78.7375570  33.0122360
  38.3535810  78.1582850  33.5838590  37.1104210  79.0215800  33.5498730
  44.7520410  81.4589760  16.5668650  44.6471050  80.8442110  17.2930030
  44.5844630  80.9355650  15.7831660  44.9034730  80.1446560  32.5457880
  44.1380400  80.7131560  32.4612550  45.0850690  79.8522770  31.6526110
  47.9923140  80.5209790  17.1710640  47.4433240  80.9679090  17.8153380
  48.6142400  80.0159040  17.6948310  52.0458080  81.8751890  33.1032900
  52.7867550  82.2127650  32.6000360  51.2830760  82.0443950  32.5502670
  39.8819870  76.8805160  33.9072430  39.9225210  76.5819030  34.8157660
  40.7365370  77.2812770  33.7479950  43.6598260  79.4800710  19.0675940
  44.0814680  79.3140580  19.9107330  43.7849100  78.6700940  18.5731080
  41.8225680  75.4597260  31.8746920  41.2922140  74.9688210  31.2470260
  42.4913750  75.8881460  31.3404850  46.1725900  78.5038320  16.3153040
  46.6931560  77.7887340  15.9494190  46.8194300  79.1424190  16.6153550
  50.7203740  79.9266720  31.6388110  51.1344760  80.0811800  32.4878530
  49.7854740  80.0521940  31.8013890  42.3097980  72.4259630  31.9544210
  42.2154850  71.8080380  31.2295080  41.7295370  73.1525920  31.7274120
  45.4818970  79.8787200  29.6084040  45.9007080  80.7219930  29.4360280
  44.5627600  80.0159240  29.3790820  47.8182870  77.6103380  30.9921880
  47.9379080  77.0144520  31.7316720  48.6776870  77.6473070  30.5723180
  50.1570770  78.1640570  29.5684390  49.6305990  78.6883190  28.9649530
  50.5002110  78.7967960  30.1994120  42.5557160  75.5533940  16.0134100
  42.3546220  74.6901300  16.3747440  42.3849210  75.4667300  15.0755700
  43.3326390  86.1840210  30.7241770  42.7947480  86.9086270  30.4050470
  43.5860350  85.7070550  29.9339110  44.5851640  74.1524730  32.2497700
  45.1751330  73.8440580  32.9375520  43.7671880  73.6804480  32.4057600
  49.4045070  73.7690540  32.4830720  48.7160590  73.1072080  32.4180710
  50.1251090  73.3228810  32.9279180  50.0345470  70.3642170  18.5420980
  50.3147760  69.5210070  18.8980400  49.2611200  70.5965280  19.0559730
  41.3539960  72.6534560  16.0011980  41.6565860  72.6601990  15.0931130
  42.0934550  72.3032420  16.4979640  46.1888600  87.4191420  30.9828420
  46.1147300  88.3226560  31.2900790  45.2867440  87.1003320  30.9550490
  44.5724890  71.5969180  16.9868180  44.2246890  70.9193170  16.4070630
  44.7737660  71.1358690  17.8011570  46.7373930  86.5849930  18.6054780
  47.6324720  86.9234900  18.6273540  46.7691560  85.8629340  17.9779060
  40.3770090  81.9576980  16.8341780  40.8144960  82.5006650  17.4899360
  40.8617820  81.1323930  16.8438120  37.5915890  84.7466010  24.2862040
  37.9218900  83.8787070  24.0540680  38.0206890  84.9524530  25.1167000
  42.1877810  83.0775020  21.9464010  41.8873350  82.9539990  22.8467920
  42.0815300  82.2183610  21.5379740  38.0806100  85.6136600  27.0243670
  37.6437090  85.7937400  27.8567820  38.6483780  86.3711220  26.8825390
  53.7168280  85.1153600  31.3120980  53.1170270  85.1746160  30.5684900
  53.8462180  84.1758580  31.4417830  54.9569730  82.8571420  16.6490690
  54.1262690  82.9248070  17.1197920  55.1341560  83.7475540  16.3457550
  54.4126190  79.6018900  19.1524890  55.1745100  80.1715550  19.2584580
  54.4280560  79.0346100  19.9233200  37.9130530  78.1256830  23.3832550
  37.2579370  77.8568470  22.7392250  38.7508480  78.0161310  22.9334530
  55.4186160  80.4569000  23.9966820  55.7894990  79.6736320  23.5902790
  56.0588090  81.1458100  23.8184120  52.4019920  81.8405580  29.4097140
  51.5879760  82.2702740  29.6722930  52.8094120  82.4523990  28.7966190
  54.4645360  79.8953270  16.3097410  54.7394200  80.8032150  16.1816630
  54.2756100  79.8315800  17.2459400  50.8620970  72.9198120  17.6051040
  51.2805850  72.7329100  16.7647700  50.5557030  72.0677170  17.9153970
  54.3610700  77.8322260  21.3026840  53.9854300  77.0650190  20.8708130
  53.6313820  78.2144960  21.7901770  38.9506460  78.5109400  27.9235890
  39.3179500  78.4236800  28.8031910  38.3817280  77.7475950  27.8242750
  38.5022460  75.4218490  31.8294310  37.6078510  75.3885250  32.1688020
  39.0420010  75.6205280  32.5945560  37.1268610  75.3355760  19.3257880
  36.2232690  75.5985960  19.1509540  37.6109230  75.6066930  18.5457840
  39.6695820  74.3921300  17.2352260  40.3787520  73.9704520  16.7499540
  38.9535760  74.4596530  16.6035610  39.3169980  70.4460630  16.2754910
  40.0398110  70.9869570  16.5936130  39.5894500  70.1724050  15.3996450
  53.1261630  75.3153100  20.5426490  53.6220750  75.0823970  21.3275370
  52.9277700  74.4764940  20.1264130  54.5548790  73.9514050  23.0764170
  54.4448070  73.7970090  24.0146440  55.3156380  73.4234990  22.8339580
  55.4439060  71.7821970  16.3170310  56.3688370  71.6503150  16.1088600
  55.4214850  71.8614790  17.2706760  55.5177550  72.5532630  18.9427020
  54.7229050  72.4877750  19.4719930  55.7220830  73.4883270  18.9312370
  52.4595970  86.5924180  22.9365410  53.0555040  86.2708750  22.2599830
  52.7174120  86.1196000  23.7278680  40.3658540  83.0242090  33.0856040
  40.3228170  82.6535000  33.9670500  40.4969550  83.9619660  33.2257860
  44.0664570  84.5801680  28.6865760  43.8255930  84.8476240  27.7996280
  45.0067210  84.7507410  28.7416620  55.3268730  86.5996060  29.4876400
  54.8327010  86.9964930  28.7703530  54.7182020  85.9745270  29.8813680
  40.2046570  85.9704340  30.2053820  39.6106890  85.8389040  30.9443860
  40.1970410  85.1342480  29.7395920  53.0108180  87.2419480  26.7663140
  52.5511150  87.9935290  26.3921160  52.3820640  86.5225950  26.7077940
  39.8358800  83.3362720  29.1561860  39.1092860  82.7168010  29.0887810
  39.8967950  83.7303330  28.2859940  43.4403900  85.5507720  25.9411270
  43.9568920  84.9395080  25.4159530  44.0901280  86.0536500  26.4322280
  46.1799400  86.4416210  26.7680250  46.4677210  86.1870510  25.8913260
  46.6922620  85.8893570  27.3585820  53.8136050  70.5144750  23.4034670
  53.7524450  69.5705970  23.2565690  54.5928080  70.6224840  23.9488130
  38.1188800  86.6537110  22.3658620  37.9510840  86.0207790  23.0640510
  37.2523310  86.8596510  22.0152810  38.7416820  70.4853890  19.8690480
  39.4996180  70.5982770  19.2954510  38.2793990  71.3223090  19.8233910
  45.2830630  72.5993160  22.8592790  44.4705140  72.2250050  22.5188670
  45.7872270  71.8438240  23.1613980  49.7855610  69.2635610  24.0975860
  50.3884980  69.8355820  24.5724380  49.0448600  69.8275050  23.8749760
  52.9290210  69.6657170  19.3716140  53.1240840  70.5640620  19.6383570
  52.1420080  69.4344250  19.8649090  39.7251500  85.3470340  19.8108760
  39.1999120  85.7278370  19.1070720  39.6496080  85.9721110  20.5318470
  41.1141970  71.0117940  18.4092450  41.6434730  70.2247740  18.2800400
  41.7470290  71.6909130  18.6427980  46.2471760  87.3632310  34.1348450
  47.1739070  87.1276580  34.1784410  46.2322190  88.1904310  33.6534480
  54.4816820  86.9057880  21.1322700  54.6569010  86.2195620  20.4883620
  53.7838390  87.4304930  20.7399370  42.3244470  87.2952720  18.6858010
  43.0563290  87.0112000  18.1381900  42.5838140  87.0566000  19.5757390
  41.4859260  83.4117450  18.6904340  40.8568140  83.8802550  19.2390170
  41.6007090  82.5666670  19.1250530  52.8149320  86.5902170  33.9589490
  53.6074640  86.0951400  33.7515450  53.1082470  87.2692310  34.5665100
  48.9408980  77.4623110   4.8405540  48.8603030  76.5477720   4.5697250
  48.5273400  77.9590180   4.1345250  47.0727020  79.2402130   6.7214810
  46.2969120  78.7602570   7.0113380  47.7239950  78.5607780   6.5470970
  41.0892850  79.5521940   7.5990570  40.2577730  79.2970650   7.9987080
  41.6973830  79.6232710   8.3348490  51.0934450  83.6462320   5.5013940
  50.6315980  82.8749560   5.8301110  51.9060000  83.6728390   6.0066390
  41.0694110  83.5862030   7.7948590  41.3722150  82.6959770   7.6158810
  41.8137700  84.1432250   7.5670840  37.4617810  77.1129480   7.2672660
  38.0333920  76.3451680   7.2676300  37.4619350  77.4118240   6.3579270
  47.3197760  85.9320330   5.1217930  46.7009200  86.3877830   4.5512370
  48.1749540  86.0871790   4.7207630  46.5136010  81.9159320   6.7284970
  46.4444290  80.9749260   6.5674100  47.2755870  82.0060730   7.3007540
  38.7042680  72.5213840   9.0541590  38.5245520  71.6239590   9.3344350
  38.3022760  73.0685710   9.7288540  47.5441180  74.7229700   6.9553900
  47.9206000  73.8501580   6.8427570  47.4460690  75.0588400   6.0644340
  41.6746190  73.0955330   2.4171340  41.7812940  73.9959060   2.7240100
  40.7638550  73.0473300   2.1265990  51.3265300  72.2180140   3.8882240
  52.1474920  71.7276710   3.9307720  51.3599380  72.8077800   4.6414080
  39.3229350  75.0174340   7.6623930  40.0039460  75.2812710   8.2811330
  39.0077400  74.1775210   7.9961940  43.5153920  76.0641700   6.7496520
  44.0232140  76.5622670   7.3901540  44.0467160  75.2876900   6.5735880
  55.6164850  74.2346890  10.4525870  54.9117020  74.6228600   9.9340980
  55.8822770  74.9297180  11.0546800  41.7990020  70.7040260  11.0159940
  41.8008460  71.2212650  10.2105840  40.9694330  70.2270440  10.9929870
  48.1861110  80.8159570   2.5149840  47.5678380  81.2809020   1.9512560
  48.6984360  81.5087050   2.9319350  43.0492870  80.3435440   9.1933440
  42.7162250  80.9704360   9.8354510  43.2259550  80.8697320   8.4135110
  51.5626780  74.1580520   6.6609780  50.8582350  74.4465410   7.2412890
  51.9238940  74.9680630   6.3009340  41.4805350  72.4150220   9.0230390
  41.8222160  73.2592270   8.7284260  40.5421160  72.5633960   9.1395730
  42.2611970  82.3116240  11.0082620  42.8785970  82.9867320  10.7267070
  41.4005090  82.7204220  10.9170120  53.1789560  83.7755650   8.9237260
  52.4953080  84.4454760   8.9153930  53.7183850  83.9736300   8.1582120
  54.6313700  73.6035310   7.0518990  53.6838610  73.6374290   7.1834420
  54.9563690  74.4174260   7.4368350  45.1633240  69.9032490   5.3474980
  45.4708220  69.3479380   4.6310480  44.2333940  70.0376950   5.1647970
  50.7148300  85.6199780   7.6382440  50.7275460  85.2162070   6.7704700
  50.1623520  86.3947070   7.5343870  52.0093720  82.3416000   2.7272610
  51.8990050  81.3990330   2.8522030  52.0061970  82.7031640   3.6135370
  50.1133740  80.5229620   8.9665050  50.5302530  80.3089730   8.1318510
  50.8373560  80.7802410   9.5373670  47.5514000  77.9681320   2.0835100
  46.6243280  77.9018700   2.3123570  47.7038820  78.9061450   1.9690340
  54.0595840  78.9216840   9.0581290  53.2314470  78.9909930   8.5831420
  54.6546320  79.5071150   8.5897120  51.5811290  79.5301620   2.5870350
  50.9623710  79.1921170   1.9396650  51.5635740  78.8861380   3.2949540
  51.0237850  75.7086160  10.0036160  50.6109030  76.5339870  10.2576150
  50.2913800  75.1231200   9.8112520  43.1570640  78.4946060   4.8654830
  42.7527640  77.7823310   4.3700730  43.2433760  78.1499300   5.7542870
  43.6252340  82.1813620   7.0294040  43.3280630  81.5759090   6.3501820
  44.5752160  82.2190930   6.9183400  41.8699260  75.2689270   8.6453870
  42.4213850  75.3784610   7.8707120  42.3842770  75.6426870   9.3609100
  51.7137950  85.7545490  10.6917140  51.2368510  86.5617680  10.4989750
  51.0299740  85.1023820  10.8443350  42.7170770  81.9195310  13.6801840
  41.8199300  82.1435280  13.9275240  42.7423640  82.0430250  12.7313240
  41.5441990  78.7908630  12.2559210  41.4049760  79.6631430  12.6246610
  40.6623350  78.4481440  12.1107150  47.8671370  83.7084500   3.5624340
  48.3067280  84.4508830   3.1479730  47.8058260  83.9511070   4.4863300
  43.3422340  84.7330330  14.4644360  43.3137770  85.1373280  13.5972790
  43.1787310  83.8040690  14.3015960  39.8575270  77.3891040   2.3661480
  39.7372870  78.1153130   1.7542750  39.5476160  76.6193950   1.8889390
  55.2937160  85.5157430  15.7608530  55.7696880  85.9940320  16.4397610
  55.9144320  85.4474920  15.0354030  37.4960640  80.5606180   8.1730120
  37.5741060  80.6954950   7.2285840  38.1102320  79.8522070   8.3658240
  38.7408270  82.2606370   4.5836300  38.3336350  82.4020960   3.7289900
  39.6321280  81.9766530   4.3807510  54.6970410  82.7070280  12.9208540
  54.8233470  82.4682160  12.0025720  54.7391790  81.8754820  13.3930620
  48.5587150  86.4098280  11.4903350  49.0731820  86.3206290  12.2925780
  47.7156230  86.7557980  11.7831260  43.0129930  86.4752150   2.6958970
  42.8372410  85.5587690   2.4826770  42.1585670  86.8339440   2.9356770
  49.8017610  85.8303890   3.5533840  50.2574560  85.0493270   3.8672460
  50.1410130  86.5410710   4.0975020  54.5494420  74.7602740  13.8858280
  53.9338690  75.2682410  13.3573740  54.2290840  73.8601070  13.8284220
  37.5520160  81.6020350  10.7124580  37.7151200  81.1325710   9.8943950
  38.0172610  81.0943910  11.3773420  42.3238930  70.7326110   5.7485150
  41.8807080  71.5135650   5.4169670  42.8823920  71.0556000   6.4556090
  46.6108740  73.5994630  11.3520470  46.1488110  73.8077650  12.1640410
  46.2086850  72.7853980  11.0491140  51.6113250  74.8203580  12.4817130
  50.7606840  74.5209330  12.8026200  51.4515040  75.0645590  11.5700950
  48.7062960  76.3205330  14.5815920  49.0316370  75.4869080  14.2418150
  49.4943290  76.8433850  14.7294250  44.3614830  71.2773440   7.6074750
  44.6587160  72.1836270   7.5266770  44.9100390  70.7892220   6.9934320
  42.1153150  75.8559680   3.4766400  41.8894070  75.6396850   4.3813020
  41.3345680  76.2888140   3.1312370  44.5552360  76.7545260  14.1426670
  44.4595960  75.8139990  13.9927070  45.3984340  76.9760330  13.7474740
  47.9515780  74.4986590   4.1060330  48.3445350  74.8158790   3.2929020
  48.3132630  73.6198470   4.2204850  39.6862900  73.1658930  12.2960450
  39.2926290  74.0134140  12.5033230  38.9981300  72.5285300  12.4869090
  46.2607950  73.2493900  15.3657190  45.5706270  73.0566100  16.0003280
  47.0040250  73.5328540  15.8981490  36.9879950  71.0887390   6.3290530
  36.6993000  71.6590250   7.0415510  37.7325710  70.6091840   6.6921760
  48.5370920  77.0892340   8.2011110  47.8052040  77.5979150   8.5501210
  48.1395260  76.2722320   7.8999890  44.9748310  73.7646540   6.6063600
  44.9784370  73.3236490   5.7568140  45.8699430  74.0863870   6.7135420
  40.8250690  73.6473030   5.5657810  40.4850740  74.1248260   6.3224860
  40.0628010  73.1938150   5.2058910  48.9996830  72.5426020   7.6134050
  49.0169570  72.9934670   8.4575900  48.7512410  71.6431660   7.8267490
  52.4267580  69.9558200  13.4520430  52.7513350  69.2247860  13.9778410
  52.4624090  69.6371840  12.5501420  39.1259140  80.9771780  12.8720390
  38.7413930  80.3365450  13.4703350  39.4371330  81.6807900  13.4415120
  45.2756280  77.8248320   8.3529010  45.6426410  77.3506890   9.0990350
  45.0861340  78.6989890   8.6937350  38.1396770  72.5692010   4.4822480
  37.8543690  72.2047680   5.3201100  38.0775630  71.8372470   3.8685620
  43.0655650  76.8656960  10.6713220  42.7612720  77.7448940  10.8963580
  44.0202110  76.9256750  10.7070660  52.3525420  80.0683310   7.0606460
  53.0724540  80.5638600   6.6702570  52.1507240  79.3901200   6.4160330
  47.7344220  80.1392370  12.9475460  47.6681530  79.2188040  12.6933050
  47.1049360  80.2367810  13.6620100  41.6374840  80.7398330   4.9058880
  42.1553510  79.9366590   4.8515770  41.1858860  80.6777470   5.7475710
  39.1219380  77.7059700  11.8184580  38.7634320  78.3713550  12.4057920
  38.8273940  76.8743250  12.1897200  42.3232500  78.1643940  14.7024130
  42.0232640  78.3101120  13.8051950  43.0943740  77.6049230  14.6097520
  47.6660950  82.9612940  12.6979260  47.6805490  82.0293900  12.4798170
  46.9586050  83.0472700  13.3369030  53.8772160  79.6020280  12.0447840
  53.1520350  80.1949060  11.8477230  54.4047620  79.5943820  11.2461210
  49.4071750  81.3280450   5.5431690  49.7595570  80.7308580   4.8833060
  48.5234080  81.0024680   5.7139940  45.4935030  82.0878140   2.9502100
  46.1806160  82.6347350   3.3309690  44.7067450  82.6318870   2.9851710
  44.7962240  79.0924170   2.5627460  45.2525020  79.9029420   2.7887650
  44.4450450  78.7747310   3.3945950  47.0994850  84.6030510   9.7919760
  47.7437070  84.8089890  10.4693180  47.4624290  83.8418910   9.3390610
  40.6974020  69.4361820   3.0349980  40.5688650  69.4279720   3.9834900
  39.8736040  69.7744910   2.6840990  48.3726930  82.6062860   8.5097210
  49.0149160  81.9056020   8.6229380  48.8976280  83.3861300   8.3294100
  50.1464550  83.4057760  11.7133270  50.4820790  83.9924450  12.3911190
  49.2264890  83.2750470  11.9431060  37.6967950  71.1952940  12.4956680
  36.9826470  71.3949860  13.1009290  38.1162990  70.4192510  12.8671480
  37.9840540  85.1833200  13.4823210  38.0931660  84.2427940  13.3418600
  37.3321100  85.4487950  12.8336940  45.9753130  83.4549090  14.8821330
  45.6550000  82.7358330  15.4267020  45.3011490  84.1304160  14.9557390
  49.1906730  73.6875250  10.2458130  49.5587550  72.8670460  10.5737700
  48.3304930  73.7477140  10.6613780  44.5252790  74.9218140   2.4703570
  43.8168940  75.3904480   2.9117180  44.8097270  74.2640150   3.1048760
  46.1508720  76.3414840  10.4696100  46.6493970  76.8160660  11.1347950
  46.2931670  75.4178360  10.6766130  48.5568220  71.6468800   3.9099360
  48.4336000  71.6654930   2.9608870  49.5052780  71.6947740   4.0297760
  45.6445010  86.8824100   3.1827340  45.8986510  86.8445490   2.2606710
  44.6957490  86.7557430   3.1755590  53.3575580  72.5582800  11.3124490
  52.8549180  73.2988200  11.6518300  54.1732240  72.9466800  10.9961280
  51.6497590  77.8015980   4.7585850  50.7087730  77.8166210   4.9333540
  51.9641660  77.0151940   5.2046150  53.6523170  84.9724830   6.4340110
  53.7770590  85.7956000   6.9063920  54.5188730  84.7615560   6.0864260
  41.1240700  87.0656040   6.1057240  41.8603180  86.5171500   6.3765810
  41.5081620  87.9312050   5.9663230  38.0086180  83.1329610   1.9798750
  37.0825960  83.3750750   1.9704160  38.4742610  83.9603870   1.8583500
  40.1298980  86.2502110  15.2942820  40.9311710  86.5714160  15.7078220
  39.6150800  85.8897690  16.0162730  48.9663610  82.3581980  15.2418230
  48.3601770  82.3813580  14.5013980  48.6617720  81.6265020  15.7785480
  50.3963980  86.0862270  13.8527640  51.3485730  86.0020290  13.8027880
  50.2492200  86.7503980  14.5261430  37.8496790  78.7375570  14.2378870
  38.3535810  78.1582850  14.8095100  37.1104210  79.0215800  14.7755240
  44.9034730  80.1446560  13.7714390  44.1380400  80.7131560  13.6869060
  45.0850690  79.8522770  12.8782620  52.0458080  81.8751890  14.3289410
  52.7867550  82.2127650  13.8256870  51.2830760  82.0443950  13.7759180
  39.8819870  76.8805160  15.1328940  39.9225210  76.5819030  16.0414170
  40.7365370  77.2812770  14.9736460  41.8225680  75.4597260  13.1003430
  41.2922140  74.9688210  12.4726770  42.4913750  75.8881460  12.5661360
  50.7203740  79.9266720  12.8644620  51.1344760  80.0811800  13.7135040
  49.7854740  80.0521940  13.0270400  51.1925910  77.2662880  14.8683770
  51.7746680  76.5115200  14.7804250  51.3687680  77.7970320  14.0915250
  42.3097980  72.4259630  13.1800720  42.2154850  71.8080380  12.4551590
  41.7295370  73.1525920  12.9530630  45.0759420  70.9832870  10.2128110
  44.6276720  71.0057130   9.3673660  44.4424620  70.5851890  10.8098410
  45.4818970  79.8787200  10.8340550  45.9007080  80.7219930  10.6616790
  44.5627600  80.0159240  10.6047330  47.8182870  77.6103380  12.2178390
  47.9379080  77.0144520  12.9573230  48.6776870  77.6473070  11.7979690
  50.1570770  78.1640570  10.7940900  49.6305990  78.6883190  10.1906040
  50.5002110  78.7967960  11.4250630  43.3326390  86.1840210  11.9498280
  42.7947480  86.9086270  11.6306980  43.5860350  85.7070550  11.1595620
  44.5851640  74.1524730  13.4754210  45.1751330  73.8440580  14.1632030
  43.7671880  73.6804480  13.6314110  49.4045070  73.7690540  13.7087230
  48.7160590  73.1072080  13.6437220  50.1251090  73.3228810  14.1535690
  46.1888600  87.4191420  12.2084930  46.1147300  88.3226560  12.5157300
  45.2867440  87.1003320  12.1807000  37.5915890  84.7466010   5.5118550
  37.9218900  83.8787070   5.2797190  38.0206890  84.9524530   6.3423510
  42.1877810  83.0775020   3.1720520  41.8873350  82.9539990   4.0724430
  42.0815300  82.2183610   2.7636250  38.0806100  85.6136600   8.2500180
  37.6437090  85.7937400   9.0824330  38.6483780  86.3711220   8.1081900
  53.7168280  85.1153600  12.5377490  53.1170270  85.1746160  11.7941410
  53.8462180  84.1758580  12.6674340  37.9130530  78.1256830   4.6089060
  37.2579370  77.8568470   3.9648760  38.7508480  78.0161310   4.1591040
  55.4186160  80.4569000   5.2223330  55.7894990  79.6736320   4.8159300
  56.0588090  81.1458100   5.0440630  52.4019920  81.8405580  10.6353650
  51.5879760  82.2702740  10.8979440  52.8094120  82.4523990  10.0222700
  54.3610700  77.8322260   2.5283350  53.9854300  77.0650190   2.0964640
  53.6313820  78.2144960   3.0158280  38.9506460  78.5109400   9.1492400
  39.3179500  78.4236800  10.0288420  38.3817280  77.7475950   9.0499260
  53.7510320  76.9793780  12.1622870  53.5196410  76.7506530  11.2620820
  54.0114870  77.8993330  12.1167760  38.5022460  75.4218490  13.0550820
  37.6078510  75.3885250  13.3944530  39.0420010  75.6205280  13.8202070
  52.1898390  72.2050210  14.9402570  53.0668570  72.2133610  15.3236570
  52.2019230  71.4681050  14.3294920  53.6361660  76.0579750   5.8290590
  54.1599140  75.5642400   5.1980760  54.2221080  76.1930110   6.5738160
  53.8151380  76.1419620   9.3510140  52.8654090  76.1083160   9.4655130
  53.9964390  77.0519730   9.1159910  53.1261630  75.3153100   1.7683000
  53.6220750  75.0823970   2.5531880  52.9277700  74.4764940   1.3520640
  39.0062170  69.6966820   7.4034040  39.6538360  69.1464200   6.9629200
  39.4264010  69.9509970   8.2249850  54.5548790  73.9514050   4.3020680
  54.4448070  73.7970090   5.2402950  55.3156380  73.4234990   4.0596090
  52.9014510  69.8908180  10.7603680  53.5386730  70.5042320  11.1262870
  53.0489400  69.9268840   9.8152910  52.4595970  86.5924180   4.1621920
  53.0555040  86.2708750   3.4856340  52.7174120  86.1196000   4.9535190
  38.7594170  69.8522490  10.1459360  38.4108990  70.3086310  10.9117540
  38.4281870  68.9579620  10.2281790  40.3658540  83.0242090  14.3112550
  40.3228170  82.6535000  15.1927010  40.4969550  83.9619660  14.4514370
  44.0664570  84.5801680   9.9122270  43.8255930  84.8476240   9.0252790
  45.0067210  84.7507410   9.9673130  46.2718990  71.0434370  13.6678780
  46.2107880  71.6356200  14.4174190  47.2119370  70.9360330  13.5229040
  48.9093550  70.7004430  13.3071070  49.5233960  71.0183720  12.6452150
  49.4543110  70.2153020  13.9266930  55.3268730  86.5996060  10.7132910
  54.8327010  86.9964930   9.9960040  54.7182020  85.9745270  11.1070190
  39.4314810  69.3798690  13.4210130  39.9797800  69.1986740  12.6576240
  39.4970120  68.5892800  13.9566440  40.2046570  85.9704340  11.4310330
  39.6106890  85.8389040  12.1700370  40.1970410  85.1342480  10.9652430
  49.6501590  69.2636570   9.6340360  48.7761430  69.5971680   9.4313290
  49.5412340  68.7909750  10.4592230  50.5573570  71.4707440  11.0182080
  50.2286930  70.6559200  10.6383810  51.5055870  71.4277250  10.8947770
  53.0108180  87.2419480   7.9919650  52.5511150  87.9935290   7.6177670
  52.3820640  86.5225950   7.9334450  39.8358800  83.3362720  10.3818370
  39.1092860  82.7168010  10.3144320  39.8967950  83.7303330   9.5116450
  43.4403900  85.5507720   7.1667780  43.9568920  84.9395080   6.6416040
  44.0901280  86.0536500   7.6578790  46.1799400  86.4416210   7.9936760
  46.4677210  86.1870510   7.1169770  46.6922620  85.8893570   8.5842330
  47.3976410  70.1806410   8.5733270  46.6148200  70.6551910   8.8530030
  47.1039340  69.2761240   8.4646450  51.9497480  70.8829510   6.6182360
  52.3905570  70.8274610   5.7703960  51.6805070  71.7987520   6.6892540
  53.8136050  70.5144750   4.6291180  53.7524450  69.5705970   4.4822200
  54.5928080  70.6224840   5.1744640  38.1188800  86.6537110   3.5915130
  37.9510840  86.0207790   4.2897020  37.2523310  86.8596510   3.2409320
  45.2830630  72.5993160   4.0849300  44.4705140  72.2250050   3.7445180
  45.7872270  71.8438240   4.3870490  49.7855610  69.2635610   5.3232370
  50.3884980  69.8355820   5.7980890  49.0448600  69.8275050   5.1006270
  43.3079810  70.7493080   2.6894350  42.6782550  70.0480390   2.8564480
  42.7684950  71.5097210   2.4727510  46.2471760  87.3632310  15.3604960
  47.1739070  87.1276580  15.4040920  46.2322190  88.1904310  14.8790990
  54.4816820  86.9057880   2.3579210  54.6569010  86.2195620   1.7140130
  53.7838390  87.4304930   1.9655880  43.4335370  70.0277060  15.1246840
  43.1519640  70.5310660  14.3607660  43.8155070  69.2298810  14.7588970
  50.0350830  69.4430640  15.7027310  49.9216280  69.7625250  16.5978830
  50.8520570  69.8443150  15.4064590  52.8149320  86.5902170  15.1846000
  53.6074640  86.0951400  14.9771960  53.1082470  87.2692310  15.7921610
  48.9408980  58.6879620  61.1636010  48.8603030  57.7734230  60.8927720
  48.5273400  59.1846690  60.4575720  47.0727020  60.4658640  63.0445280
  46.2969120  59.9859080  63.3343850  47.7239950  59.7864290  62.8701440
  41.0892850  60.7778450  63.9221040  40.2577730  60.5227160  64.3217550
  41.6973830  60.8489220  64.6578960  51.0934450  64.8718830  61.8244410
  50.6315980  64.1006070  62.1531580  51.9060000  64.8984900  62.3296860
  41.0694110  64.8118540  64.1179060  41.3722150  63.9216280  63.9389280
  41.8137700  65.3688760  63.8901310  39.4984800  55.7380340  57.7063430
  38.6101500  56.0796310  57.6043310  39.7825990  55.5380660  56.8144260
  37.4617810  58.3385990  63.5903130  38.0333920  57.5708190  63.5906770
  37.4619350  58.6374750  62.6809740  47.3197760  67.1576840  61.4448400
  46.7009200  67.6134340  60.8742840  48.1749540  67.3128300  61.0438100
  46.5136010  63.1415830  63.0515440  46.4444290  62.2005770  62.8904570
  47.2755870  63.2317240  63.6238010  38.7042680  53.7470350  65.3772060
  38.5245520  52.8496100  65.6574820  38.3022760  54.2942220  66.0519010
  47.5441180  55.9486210  63.2784370  47.9206000  55.0758090  63.1658040
  47.4460690  56.2844910  62.3874810  41.6746190  54.3211840  58.7401810
  41.7812940  55.2215570  59.0470570  40.7638550  54.2729810  58.4496460
  51.3265300  53.4436650  60.2112710  52.1474920  52.9533220  60.2538190
  51.3599380  54.0334310  60.9644550  39.3229350  56.2430850  63.9854400
  40.0039460  56.5069220  64.6041800  39.0077400  55.4031720  64.3192410
  43.5153920  57.2898210  63.0726990  44.0232140  57.7879180  63.7132010
  44.0467160  56.5133410  62.8966350  55.6164850  55.4603400  66.7756340
  54.9117020  55.8485110  66.2571450  55.8822770  56.1553690  67.3777270
  41.7990020  51.9296770  67.3390410  41.8008460  52.4469160  66.5336310
  40.9694330  51.4526950  67.3160340  48.1861110  62.0416080  58.8380310
  47.5678380  62.5065530  58.2743030  48.6984360  62.7343560  59.2549820
  43.0492870  61.5691950  65.5163910  42.7162250  62.1960870  66.1584980
  43.2259550  62.0953830  64.7365580  51.5626780  55.3837030  62.9840250
  50.8582350  55.6721920  63.5643360  51.9238940  56.1937140  62.6239810
  41.4805350  53.6406730  65.3460860  41.8222160  54.4848780  65.0514730
  40.5421160  53.7890470  65.4626200  42.2611970  63.5372750  67.3313090
  42.8785970  64.2123830  67.0497540  41.4005090  63.9460730  67.2400590
  37.5544310  62.7272610  56.2119940  37.1772290  63.2159710  55.4804840
  37.8117380  63.3997890  56.8426470  53.1789560  65.0012160  65.2467730
  52.4953080  65.6711270  65.2384400  53.7183850  65.1992810  64.4812590
  54.6313700  54.8291820  63.3749460  53.6838610  54.8630800  63.5064890
  54.9563690  55.6430770  63.7598820  45.1633240  51.1289000  61.6705450
  45.4708220  50.5735890  60.9540950  44.2333940  51.2633460  61.4878440
  50.7148300  66.8456290  63.9612910  50.7275460  66.4418580  63.0935170
  50.1623520  67.6203580  63.8574340  52.0093720  63.5672510  59.0503080
  51.8990050  62.6246840  59.1752500  52.0061970  63.9288150  59.9365840
  50.1133740  61.7486130  65.2895520  50.5302530  61.5346240  64.4548980
  50.8373560  62.0058920  65.8604140  47.5514000  59.1937830  58.4065570
  46.6243280  59.1275210  58.6354040  47.7038820  60.1317960  58.2920810
  47.5383080  55.4654830  55.4032730  46.5986750  55.6268790  55.4885190
  47.8566340  56.1840510  54.8568720  54.0595840  60.1473350  65.3811760
  53.2314470  60.2166440  64.9061890  54.6546320  60.7327660  64.9127590
  51.5811290  60.7558130  58.9100820  50.9623710  60.4177680  58.2627120
  51.5635740  60.1117890  59.6180010  51.0237850  56.9342670  66.3266630
  50.6109030  57.7596380  66.5806620  50.2913800  56.3487710  66.1342990
  43.1570640  59.7202570  61.1885300  42.7527640  59.0079820  60.6931200
  43.2433760  59.3755810  62.0773340  43.6252340  63.4070130  63.3524510
  43.3280630  62.8015600  62.6732290  44.5752160  63.4447440  63.2413870
  41.8699260  56.4945780  64.9684340  42.4213850  56.6041120  64.1937590
  42.3842770  56.8683380  65.6839570  51.7137950  66.9802000  67.0147610
  51.2368510  67.7874190  66.8220220  51.0299740  66.3280330  67.1673820
  49.7575990  59.9944940  55.9173570  50.1969270  59.1567370  55.7711390
  50.4704410  60.6274340  56.0037710  47.8671370  64.9341010  59.8854810
  48.3067280  65.6765340  59.4710200  47.8058260  65.1767580  60.8093770
  53.3393130  51.2487750  54.2314610  53.0265790  51.3414580  55.1313680
  54.1005600  51.8268780  54.1812040  39.8575270  58.6147550  58.6891950
  39.7372870  59.3409640  58.0773220  39.5476160  57.8450460  58.2119860
  37.4960640  61.7862690  64.4960590  37.5741060  61.9211460  63.5516310
  38.1102320  61.0778580  64.6888710  38.7408270  63.4862880  60.9066770
  38.3336350  63.6277470  60.0520370  39.6321280  63.2023040  60.7037980
  50.5341550  67.9210130  57.2417820  50.3742690  67.6313070  58.1399650
  50.3688260  67.1450260  56.7063050  43.0129930  67.7008660  59.0189440
  42.8372410  66.7844200  58.8057240  42.1585670  68.0595950  59.2587240
  50.2367680  65.4297690  55.8015820  49.5432840  65.4274980  55.1418100
  50.9790540  65.0057010  55.3709990  49.8017610  67.0560400  59.8764310
  50.2574560  66.2749780  60.1902930  50.1410130  67.7667220  60.4205490
  37.5520160  62.8276860  67.0355050  37.7151200  62.3582220  66.2174420
  38.0172610  62.3200420  67.7003890  42.3238930  51.9582620  62.0715620
  41.8807080  52.7392160  61.7400140  42.8823920  52.2812510  62.7786560
  45.4397750  51.5793320  56.9521450  44.8151930  51.5753190  57.6774760
  45.3527870  50.7124280  56.5557420  44.3614830  52.5029950  63.9305220
  44.6587160  53.4092780  63.8497240  44.9100390  52.0148730  63.3164790
  42.1153150  57.0816190  59.7996870  41.8894070  56.8653360  60.7043490
  41.3345680  57.5144650  59.4542840  49.3450910  57.0879560  58.3987520
  48.7459800  57.8115360  58.2151140  49.8930520  57.0256340  57.6163970
  47.9515780  55.7243100  60.4290800  48.3445350  56.0415300  59.6159490
  48.3132630  54.8454980  60.5435320  36.9879950  52.3143900  62.6521000
  36.6993000  52.8846760  63.3645980  37.7325710  51.8348350  63.0152230
  37.1750180  56.2564020  53.8623720  37.0924850  57.1994780  54.0038710
  36.8233240  56.1138930  52.9836070  48.5370920  58.3148850  64.5241580
  47.8052040  58.8235660  64.8731680  48.1395260  57.4978830  64.2230360
  44.9748310  54.9903050  62.9294070  44.9784370  54.5493000  62.0798610
  45.8699430  55.3120380  63.0365890  40.8250690  54.8729540  61.8888280
  40.4850740  55.3504770  62.6455330  40.0628010  54.4194660  61.5289380
  45.0368460  55.9915130  55.9200830  45.1581280  55.9501610  56.8686650
  44.6516970  56.8539280  55.7647560  48.9996830  53.7682530  63.9364520
  49.0169570  54.2191180  64.7806370  48.7512410  52.8688170  64.1497960
  44.0489960  58.3016270  55.3184130  43.4806860  57.8534520  54.6920040
  44.7578960  58.6609050  54.7849280  45.2756280  59.0504830  64.6759480
  45.6426410  58.5763400  65.4220820  45.0861340  59.9246400  65.0167820
  38.1396770  53.7948520  60.8052950  37.8543690  53.4304190  61.6431570
  38.0775630  53.0628980  60.1916090  43.0655650  58.0913470  66.9943690
  42.7612720  58.9705450  67.2194050  44.0202110  58.1513260  67.0301130
  41.5937440  62.2974460  57.5910540  40.8199700  61.7572080  57.4309260
  42.3232070  61.7781070  57.2528300  52.3525420  61.2939820  63.3836930
  53.0724540  61.7895110  62.9933040  52.1507240  60.6157710  62.7390800
  47.8135360  52.6877780  57.5266320  46.9999970  52.1890950  57.4511630
  47.6197310  53.5276030  57.1102670  50.5283750  57.0597430  55.8228480
  51.4163370  57.3714660  55.6479820  50.4988840  56.1869680  55.4309060
  41.6374840  61.9654840  61.2289350  42.1553510  61.1623100  61.1746240
  41.1858860  61.9033980  62.0706180  46.5244340  63.2321120  56.5016650
  46.8660040  63.9763350  56.0059970  45.6957050  63.5452240  56.8641480
  52.7998020  58.3709270  55.2908340  52.7161740  58.8023490  54.4404780
  53.5192210  58.8307620  55.7235160  53.8285270  65.2251530  58.0190470
  53.1861430  64.5707150  58.2934190  53.4415930  65.6306620  57.2431140
  49.4071750  62.5536960  61.8662160  49.7595570  61.9565090  61.2063530
  48.5234080  62.2281190  62.0370410  45.4935030  63.3134650  59.2732570
  46.1806160  63.8603860  59.6540160  44.7067450  63.8575380  59.3082180
  37.6327430  58.9307470  54.7649650  38.5022280  59.2132270  55.0485570
  37.1417750  59.7443340  54.6498460  44.7962240  60.3180680  58.8857930
  45.2525020  61.1285930  59.1118120  44.4450450  60.0003820  59.7176420
  47.0994850  65.8287020  66.1150230  47.7437070  66.0346400  66.7923650
  47.4624290  65.0675420  65.6621080  40.6974020  50.6618330  59.3580450
  40.5688650  50.6536230  60.3065370  39.8736040  51.0001420  59.0071460
  48.3726930  63.8319370  64.8327680  49.0149160  63.1312530  64.9459850
  48.8976280  64.6117810  64.6524570  52.2182650  64.1167990  54.5566820
  51.9920230  63.3998430  55.1491460  51.8278850  63.8680430  53.7188570
  37.9998680  68.1434850  55.3311280  38.3596320  68.7424190  54.6768550
  37.8591020  68.6894740  56.1046310  51.7998900  62.0339930  56.2180980
  51.5120600  62.4952620  57.0058860  52.5951070  61.5737700  56.4865200
  44.0167300  65.5266050  56.1484950  44.0077400  66.2595740  55.5329460
  43.0965660  65.2797630  56.2411910  39.6173940  60.7480940  56.8931710
  39.0101890  61.4879840  56.9027010  40.0923290  60.8380300  56.0669910
  49.1906730  54.9131760  66.5688600  49.5587550  54.0926970  66.8968170
  48.3304930  54.9733650  66.9844250  52.5568760  53.8688700  57.3776160
  51.9281920  53.9734370  56.6634390  52.0620680  54.0885480  58.1670040
  47.0026900  65.5894290  54.8110140  47.1038880  65.3858280  53.8812120
  46.1028640  65.3352570  55.0157920  44.5252790  56.1474650  58.7934040
  43.8168940  56.6160990  59.2347650  44.8097270  55.4896660  59.4279230
  46.1508720  57.5671350  66.7926570  46.6493970  58.0417170  67.4578420
  46.2931670  56.6434870  66.9996600  48.5568220  52.8725310  60.2329830
  48.4336000  52.8911440  59.2839340  49.5052780  52.9204250  60.3528230
  45.6445010  68.1080610  59.5057810  45.8986510  68.0702000  58.5837180
  44.6957490  67.9813940  59.4986060  42.7287810  54.4559730  56.1684750
  43.5778340  54.8929880  56.1024940  42.3619080  54.7679990  56.9956810
  51.6497590  59.0272490  61.0816320  50.7087730  59.0422720  61.2564010
  51.9641660  58.2408450  61.5276620  41.6279230  60.7092090  54.6420280
  42.3942500  60.5973450  55.2045710  41.7053920  60.0130060  53.9897050
  40.3225990  58.1417160  55.3253170  40.4029580  57.1944670  55.4370570
  41.2145740  58.4724040  55.4313830  53.6523170  66.1981340  62.7570580
  53.7770590  67.0212510  63.2294390  54.5188730  65.9872070  62.4094730
  41.1240700  68.2912550  62.4287710  41.8603180  67.7428010  62.6996280
  41.5081620  69.1568560  62.2893700  38.0086180  64.3586120  58.3029220
  37.0825960  64.6007260  58.2934630  38.4742610  65.1860380  58.1813970
  44.2343010  67.4642860  54.2513280  45.0271620  67.7531690  53.7995070
  43.7147360  67.0335030  53.5725760  53.2873180  66.6912990  55.6750020
  53.0014690  66.2778130  54.8604200  53.0892730  67.6200700  55.5550540
  44.7520410  62.6846270  54.1155630  44.6471050  62.0698620  54.8417010
  44.5844630  62.1612160  53.3318640  47.9923140  61.7466300  54.7197620
  47.4433240  62.1935600  55.3640360  48.6142400  61.2415550  55.2435290
  43.6598260  60.7057220  56.6162920  44.0814680  60.5397090  57.4594310
  43.7849100  59.8957450  56.1218060  46.1725900  59.7294830  53.8640020
  46.6931560  59.0143850  53.4981170  46.8194300  60.3680700  54.1640530
  45.0759420  52.2089380  66.5358580  44.6276720  52.2313640  65.6904130
  44.4424620  51.8108400  67.1328880  45.4818970  61.1043710  67.1571020
  45.9007080  61.9476440  66.9847260  44.5627600  61.2415750  66.9277800
  50.1570770  59.3897080  67.1171370  49.6305990  59.9139700  66.5136510
  50.5002110  60.0224470  67.7481100  42.5557160  56.7790450  53.5621080
  42.3546220  55.9157810  53.9234420  42.3849210  56.6923810  52.6242680
  50.0345470  51.5898680  56.0907960  50.3147760  50.7466580  56.4467380
  49.2611200  51.8221790  56.6046710  41.3539960  53.8791070  53.5498960
  41.6565860  53.8858500  52.6418110  42.0934550  53.5288930  54.0466620
  44.5724890  52.8225690  54.5355160  44.2246890  52.1449680  53.9557610
  44.7737660  52.3615200  55.3498550  46.7373930  67.8106440  56.1541760
  47.6324720  68.1491410  56.1760520  46.7691560  67.0885850  55.5266040
  40.3770090  63.1833490  54.3828760  40.8144960  63.7263160  55.0386340
  40.8617820  62.3580440  54.3925100  37.5915890  65.9722520  61.8349020
  37.9218900  65.1043580  61.6027660  38.0206890  66.1781040  62.6653980
  42.1877810  64.3031530  59.4950990  41.8873350  64.1796500  60.3954900
  42.0815300  63.4440120  59.0866720  38.0806100  66.8393110  64.5730650
  37.6437090  67.0193910  65.4054800  38.6483780  67.5967730  64.4312370
  54.9569730  64.0827930  54.1977670  54.1262690  64.1504580  54.6684900
  55.1341560  64.9732050  53.8944530  54.4126190  60.8275410  56.7011870
  55.1745100  61.3972060  56.8071560  54.4280560  60.2602610  57.4720180
  37.9130530  59.3513340  60.9319530  37.2579370  59.0824980  60.2879230
  38.7508480  59.2417820  60.4821510  55.4186160  61.6825510  61.5453800
  55.7894990  60.8992830  61.1389770  56.0588090  62.3714610  61.3671100
  52.4019920  63.0662090  66.9584120  51.5879760  63.4959250  67.2209910
  52.8094120  63.6780500  66.3453170  54.4645360  61.1209780  53.8584390
  54.7394200  62.0288660  53.7303610  54.2756100  61.0572310  54.7946380
  50.8620970  54.1454630  55.1538020  51.2805850  53.9585610  54.3134680
  50.5557030  53.2933680  55.4640950  54.3610700  59.0578770  58.8513820
  53.9854300  58.2906700  58.4195110  53.6313820  59.4401470  59.3388750
  38.9506460  59.7365910  65.4722870  39.3179500  59.6493310  66.3518890
  38.3817280  58.9732460  65.3729730  37.1268610  56.5612270  56.8744860
  36.2232690  56.8242470  56.6996520  37.6109230  56.8323440  56.0944820
  53.6361660  57.2836260  62.1521060  54.1599140  56.7898910  61.5211230
  54.2221080  57.4186620  62.8968630  53.8151380  57.3676130  65.6740610
  52.8654090  57.3339670  65.7885600  53.9964390  58.2776240  65.4390380
  39.6695820  55.6177810  54.7839240  40.3787520  55.1961030  54.2986520
  38.9535760  55.6853040  54.1522590  39.3169980  51.6717140  53.8241890
  40.0398110  52.2126080  54.1423110  39.5894500  51.3980560  52.9483430
  53.1261630  56.5409610  58.0913470  53.6220750  56.3080480  58.8762350
  52.9277700  55.7021450  57.6751110  39.0062170  50.9223330  63.7264510
  39.6538360  50.3720710  63.2859670  39.4264010  51.1766480  64.5480320
  54.5548790  55.1770560  60.6251150  54.4448070  55.0226600  61.5633420
  55.3156380  54.6491500  60.3826560  52.9014510  51.1164690  67.0834150
  53.5386730  51.7298830  67.4493340  53.0489400  51.1525350  66.1383380
  55.4439060  53.0078480  53.8657290  56.3688370  52.8759660  53.6575580
  55.4214850  53.0871300  54.8193740  55.5177550  53.7789140  56.4914000
  54.7229050  53.7134260  57.0206910  55.7220830  54.7139780  56.4799350
  52.4595970  67.8180690  60.4852390  53.0555040  67.4965260  59.8086810
  52.7174120  67.3452510  61.2765660  38.7594170  51.0779000  66.4689830
  38.4108990  51.5342820  67.2348010  38.4281870  50.1836130  66.5512260
  44.0664570  65.8058190  66.2352740  43.8255930  66.0732750  65.3483260
  45.0067210  65.9763920  66.2903600  55.3268730  67.8252570  67.0363380
  54.8327010  68.2221440  66.3190510  54.7182020  67.2001780  67.4300660
  49.6501590  50.4893080  65.9570830  48.7761430  50.8228190  65.7543760
  49.5412340  50.0166260  66.7822700  50.5573570  52.6963950  67.3412550
  50.2286930  51.8815710  66.9614280  51.5055870  52.6533760  67.2178240
  53.0108180  68.4675990  64.3150120  52.5511150  69.2191800  63.9408140
  52.3820640  67.7482460  64.2564920  39.8358800  64.5619230  66.7048840
  39.1092860  63.9424520  66.6374790  39.8967950  64.9559840  65.8346920
  43.4403900  66.7764230  63.4898250  43.9568920  66.1651590  62.9646510
  44.0901280  67.2793010  63.9809260  46.1799400  67.6672720  64.3167230
  46.4677210  67.4127020  63.4400240  46.6922620  67.1150080  64.9072800
  47.3976410  51.4062920  64.8963740  46.6148200  51.8808420  65.1760500
  47.1039340  50.5017750  64.7876920  51.9497480  52.1086020  62.9412830
  52.3905570  52.0531120  62.0934430  51.6805070  53.0244030  63.0123010
  53.8136050  51.7401260  60.9521650  53.7524450  50.7962480  60.8052670
  54.5928080  51.8481350  61.4975110  38.1188800  67.8793620  59.9145600
  37.9510840  67.2464300  60.6127490  37.2523310  68.0853020  59.5639790
  38.7416820  51.7110400  57.4177460  39.4996180  51.8239280  56.8441490
  38.2793990  52.5479600  57.3720890  45.2830630  53.8249670  60.4079770
  44.4705140  53.4506560  60.0675650  45.7872270  53.0694750  60.7100960
  49.7855610  50.4892120  61.6462840  50.3884980  51.0612330  62.1211360
  49.0448600  51.0531560  61.4236740  52.9290210  50.8913680  56.9203120
  53.1240840  51.7897130  57.1870550  52.1420080  50.6600760  57.4136070
  39.7251500  66.5726850  57.3595740  39.1999120  66.9534880  56.6557700
  39.6496080  67.1977620  58.0805450  41.1141970  52.2374450  55.9579430
  41.6434730  51.4504250  55.8287380  41.7470290  52.9165640  56.1914960
  43.3079810  51.9749590  59.0124820  42.6782550  51.2736900  59.1794950
  42.7684950  52.7353720  58.7957980  54.4816820  68.1314390  58.6809680
  54.6569010  67.4452130  58.0370600  53.7838390  68.6561440  58.2886350
  42.3244470  68.5209230  56.2344990  43.0563290  68.2368510  55.6868880
  42.5838140  68.2822510  57.1244370  41.4859260  64.6373960  56.2391320
  40.8568140  65.1059060  56.7877150  41.6007090  63.7923180  56.6737510
  41.0892850  60.7778450  45.1477550  40.2577730  60.5227160  45.5474060
  41.6973830  60.8489220  45.8835470  41.0694110  64.8118540  45.3435570
  41.3722150  63.9216280  45.1645790  41.8137700  65.3688760  45.1157820
  38.7042680  53.7470350  46.6028570  38.5245520  52.8496100  46.8831330
  38.3022760  54.2942220  47.2775520  39.3229350  56.2430850  45.2110910
  40.0039460  56.5069220  45.8298310  39.0077400  55.4031720  45.5448920
  55.6164850  55.4603400  48.0012850  54.9117020  55.8485110  47.4827960
  55.8822770  56.1553690  48.6033780  41.7990020  51.9296770  48.5646920
  41.8008460  52.4469160  47.7592820  40.9694330  51.4526950  48.5416850
  43.0492870  61.5691950  46.7420420  42.7162250  62.1960870  47.3841490
  43.2259550  62.0953830  45.9622090  41.4805350  53.6406730  46.5717370
  41.8222160  54.4848780  46.2771240  40.5421160  53.7890470  46.6882710
  42.2611970  63.5372750  48.5569600  42.8785970  64.2123830  48.2754050
  41.4005090  63.9460730  48.4657100  54.6313700  54.8291820  44.6005970
  53.6838610  54.8630800  44.7321400  54.9563690  55.6430770  44.9855330
  50.1133740  61.7486130  46.5152030  50.5302530  61.5346240  45.6805490
  50.8373560  62.0058920  47.0860650  54.0595840  60.1473350  46.6068270
  53.2314470  60.2166440  46.1318400  54.6546320  60.7327660  46.1384100
  51.0237850  56.9342670  47.5523140  50.6109030  57.7596380  47.8063130
  50.2913800  56.3487710  47.3599500  41.8699260  56.4945780  46.1940850
  42.4213850  56.6041120  45.4194100  42.3842770  56.8683380  46.9096080
  51.7137950  66.9802000  48.2404120  51.2368510  67.7874190  48.0476730
  51.0299740  66.3280330  48.3930330  42.7170770  63.1451820  51.2288820
  41.8199300  63.3691790  51.4762220  42.7423640  63.2686760  50.2800220
  41.5441990  60.0165140  49.8046190  41.4049760  60.8887940  50.1733590
  40.6623350  59.6737950  49.6594130  43.3422340  65.9586840  52.0131340
  43.3137770  66.3629790  51.1459770  43.1787310  65.0297200  51.8502940
  53.3393130  51.2487750  35.4571120  53.0265790  51.3414580  36.3570190
  54.1005600  51.8268780  35.4068550  55.2937160  66.7413940  53.3095510
  55.7696880  67.2196830  53.9884590  55.9144320  66.6731430  52.5841010
  37.4960640  61.7862690  45.7217100  37.5741060  61.9211460  44.7772820
  38.1102320  61.0778580  45.9145220  54.6970410  63.9326790  50.4695520
  54.8233470  63.6938670  49.5512700  54.7391790  63.1011330  50.9417600
  48.5587150  67.6354790  49.0390330  49.0731820  67.5462800  49.8412760
  47.7156230  67.9814490  49.3318240  54.5494420  55.9859250  51.4345260
  53.9338690  56.4938920  50.9060720  54.2290840  55.0857580  51.3771200
  37.5520160  62.8276860  48.2611560  37.7151200  62.3582220  47.4430930
  38.0172610  62.3200420  48.9260400  46.6108740  54.8251140  48.9007450
  46.1488110  55.0334160  49.7127390  46.2086850  54.0110490  48.5978120
  51.6113250  56.0460090  50.0304110  50.7606840  55.7465840  50.3513180
  51.4515040  56.2902100  49.1187930  48.7062960  57.5461840  52.1302900
  49.0316370  56.7125590  51.7905130  49.4943290  58.0690360  52.2781230
  44.5552360  57.9801770  51.6913650  44.4595960  57.0396500  51.5414050
  45.3984340  58.2016840  51.2961720  39.6862900  54.3915440  49.8447430
  39.2926290  55.2390650  50.0520210  38.9981300  53.7541810  50.0356070
  46.2607950  54.4750410  52.9144170  45.5706270  54.2822610  53.5490260
  47.0040250  54.7585050  53.4468470  48.5370920  58.3148850  45.7498090
  47.8052040  58.8235660  46.0988190  48.1395260  57.4978830  45.4486870
  52.4267580  51.1814710  51.0007410  52.7513350  50.4504370  51.5265390
  52.4624090  50.8628350  50.0988400  39.1259140  62.2028290  50.4207370
  38.7413930  61.5621960  51.0190330  39.4371330  62.9064410  50.9902100
  45.2756280  59.0504830  45.9015990  45.6426410  58.5763400  46.6477330
  45.0861340  59.9246400  46.2424330  43.0655650  58.0913470  48.2200200
  42.7612720  58.9705450  48.4450560  44.0202110  58.1513260  48.2557640
  47.7344220  61.3648880  50.4962440  47.6681530  60.4444550  50.2420030
  47.1049360  61.4624320  51.2107080  39.1219380  58.9316210  49.3671560
  38.7634320  59.5970060  49.9544900  38.8273940  58.0999760  49.7384180
  42.3232500  59.3900450  52.2511110  42.0232640  59.5357630  51.3538930
  43.0943740  58.8305740  52.1584500  47.6660950  64.1869450  50.2466240
  47.6805490  63.2550410  50.0285150  46.9586050  64.2729210  50.8856010
  53.8772160  60.8276790  49.5934820  53.1520350  61.4205570  49.3964210
  54.4047620  60.8200330  48.7948190  47.0994850  65.8287020  47.3406740
  47.7437070  66.0346400  48.0180160  47.4624290  65.0675420  46.8877590
  48.3726930  63.8319370  46.0584190  49.0149160  63.1312530  46.1716360
  48.8976280  64.6117810  45.8781080  50.1464550  64.6314270  49.2620250
  50.4820790  65.2180960  49.9398170  49.2264890  64.5006980  49.4918040
  37.6967950  52.4209450  50.0443660  36.9826470  52.6206370  50.6496270
  38.1162990  51.6449020  50.4158460  37.9840540  66.4089710  51.0310190
  38.0931660  65.4684450  50.8905580  37.3321100  66.6744460  50.3823920
  45.9753130  64.6805600  52.4308310  45.6550000  63.9614840  52.9754000
  45.3011490  65.3560670  52.5044370  49.1906730  54.9131760  47.7945110
  49.5587550  54.0926970  48.1224680  48.3304930  54.9733650  48.2100760
  52.5568760  53.8688700  38.6032670  51.9281920  53.9734370  37.8890900
  52.0620680  54.0885480  39.3926550  46.1508720  57.5671350  48.0183080
  46.6493970  58.0417170  48.6834930  46.2931670  56.6434870  48.2253110
  53.3575580  53.7839310  48.8611470  52.8549180  54.5244710  49.2005280
  54.1732240  54.1723310  48.5448260  41.1240700  68.2912550  43.6544220
  41.8603180  67.7428010  43.9252790  41.5081620  69.1568560  43.5150210
  40.1298980  67.4758620  52.8429800  40.9311710  67.7970670  53.2565200
  39.6150800  67.1154200  53.5649710  48.9663610  63.5838490  52.7905210
  48.3601770  63.6070090  52.0500960  48.6617720  62.8521530  53.3272460
  50.3963980  67.3118780  51.4014620  51.3485730  67.2276800  51.3514860
  50.2492200  67.9760490  52.0748410  37.8496790  59.9632080  51.7865850
  38.3535810  59.3839360  52.3582080  37.1104210  60.2472310  52.3242220
  44.9034730  61.3703070  51.3201370  44.1380400  61.9388070  51.2356040
  45.0850690  61.0779280  50.4269600  52.0458080  63.1008400  51.8776390
  52.7867550  63.4384160  51.3743850  51.2830760  63.2700460  51.3246160
  39.8819870  58.1061670  52.6815920  39.9225210  57.8075540  53.5901150
  40.7365370  58.5069280  52.5223440  41.8225680  56.6853770  50.6490410
  41.2922140  56.1944720  50.0213750  42.4913750  57.1137970  50.1148340
  50.7203740  61.1523230  50.4131600  51.1344760  61.3068310  51.2622020
  49.7854740  61.2778450  50.5757380  51.1925910  58.4919390  52.4170750
  51.7746680  57.7371710  52.3291230  51.3687680  59.0226830  51.6402230
  42.3097980  53.6516140  50.7287700  42.2154850  53.0336890  50.0038570
  41.7295370  54.3782430  50.5017610  45.0759420  52.2089380  47.7615090
  44.6276720  52.2313640  46.9160640  44.4424620  51.8108400  48.3585390
  45.4818970  61.1043710  48.3827530  45.9007080  61.9476440  48.2103770
  44.5627600  61.2415750  48.1534310  47.8182870  58.8359890  49.7665370
  47.9379080  58.2401030  50.5060210  48.6776870  58.8729580  49.3466670
  50.1570770  59.3897080  48.3427880  49.6305990  59.9139700  47.7393020
  50.5002110  60.0224470  48.9737610  43.3326390  67.4096720  49.4985260
  42.7947480  68.1342780  49.1793960  43.5860350  66.9327060  48.7082600
  44.5851640  55.3781240  51.0241190  45.1751330  55.0697090  51.7119010
  43.7671880  54.9060990  51.1801090  49.4045070  54.9947050  51.2574210
  48.7160590  54.3328590  51.1924200  50.1251090  54.5485320  51.7022670
  46.1888600  68.6447930  49.7571910  46.1147300  69.5483070  50.0644280
  45.2867440  68.3259830  49.7293980  38.0806100  66.8393110  45.7987160
  37.6437090  67.0193910  46.6311310  38.6483780  67.5967730  45.6568880
  53.7168280  66.3410110  50.0864470  53.1170270  66.4002670  49.3428390
  53.8462180  65.4015090  50.2161320  52.4019920  63.0662090  48.1840630
  51.5879760  63.4959250  48.4466420  52.8094120  63.6780500  47.5709680
  54.3610700  59.0578770  40.0770330  53.9854300  58.2906700  39.6451620
  53.6313820  59.4401470  40.5645260  38.9506460  59.7365910  46.6979380
  39.3179500  59.6493310  47.5775400  38.3817280  58.9732460  46.5986240
  53.7510320  58.2050290  49.7109850  53.5196410  57.9763040  48.8107800
  54.0114870  59.1249840  49.6654740  38.5022460  56.6475000  50.6037800
  37.6078510  56.6141760  50.9431510  39.0420010  56.8461790  51.3689050
  52.1898390  53.4306720  52.4889550  53.0668570  53.4390120  52.8723550
  52.2019230  52.6937560  51.8781900  53.6361660  57.2836260  43.3777570
  54.1599140  56.7898910  42.7467740  54.2221080  57.4186620  44.1225140
  53.8151380  57.3676130  46.8997120  52.8654090  57.3339670  47.0142110
  53.9964390  58.2776240  46.6646890  39.0062170  50.9223330  44.9521020
  39.6538360  50.3720710  44.5116180  39.4264010  51.1766480  45.7736830
  54.5548790  55.1770560  41.8507660  54.4448070  55.0226600  42.7889930
  55.3156380  54.6491500  41.6083070  52.9014510  51.1164690  48.3090660
  53.5386730  51.7298830  48.6749850  53.0489400  51.1525350  47.3639890
  55.4439060  53.0078480  35.0913800  56.3688370  52.8759660  34.8832090
  55.4214850  53.0871300  36.0450250  55.5177550  53.7789140  37.7170510
  54.7229050  53.7134260  38.2463420  55.7220830  54.7139780  37.7055860
  38.7594170  51.0779000  47.6946340  38.4108990  51.5342820  48.4604520
  38.4281870  50.1836130  47.7768770  40.3658540  64.2498600  51.8599530
  40.3228170  63.8791510  52.7413990  40.4969550  65.1876170  52.0001350
  44.0664570  65.8058190  47.4609250  43.8255930  66.0732750  46.5739770
  45.0067210  65.9763920  47.5160110  46.2718990  52.2690880  51.2165760
  46.2107880  52.8612710  51.9661170  47.2119370  52.1616840  51.0716020
  48.9093550  51.9260940  50.8558050  49.5233960  52.2440230  50.1939130
  49.4543110  51.4409530  51.4753910  55.3268730  67.8252570  48.2619890
  54.8327010  68.2221440  47.5447020  54.7182020  67.2001780  48.6557170
  39.4314810  50.6055200  50.9697110  39.9797800  50.4243250  50.2063220
  39.4970120  49.8149310  51.5053420  40.2046570  67.1960850  48.9797310
  39.6106890  67.0645550  49.7187350  40.1970410  66.3598990  48.5139410
  49.6501590  50.4893080  47.1827340  48.7761430  50.8228190  46.9800270
  49.5412340  50.0166260  48.0079210  50.5573570  52.6963950  48.5669060
  50.2286930  51.8815710  48.1870790  51.5055870  52.6533760  48.4434750
  39.8358800  64.5619230  47.9305350  39.1092860  63.9424520  47.8631300
  39.8967950  64.9559840  47.0603430  43.4403900  66.7764230  44.7154760
  43.9568920  66.1651590  44.1903020  44.0901280  67.2793010  45.2065770
  46.1799400  67.6672720  45.5423740  46.4677210  67.4127020  44.6656750
  46.6922620  67.1150080  46.1329310  47.3976410  51.4062920  46.1220250
  46.6148200  51.8808420  46.4017010  47.1039340  50.5017750  46.0133430
  53.8136050  51.7401260  42.1778160  53.7524450  50.7962480  42.0309180
  54.5928080  51.8481350  42.7231620  46.2471760  68.5888820  52.9091940
  47.1739070  68.3533090  52.9527900  46.2322190  69.4160820  52.4277970
  43.4335370  51.2533570  52.6733820  43.1519640  51.7567170  51.9094640
  43.8155070  50.4555320  52.3075950  50.0350830  50.6687150  53.2514290
  49.9216280  50.9881760  54.1465810  50.8520570  51.0699660  52.9551570
  52.8149320  67.8158680  52.7332980  53.6074640  67.3207910  52.5258940
  53.1082470  68.4948820  53.3408590  39.4984800  55.7380340  20.1576450
  38.6101500  56.0796310  20.0556330  39.7825990  55.5380660  19.2657280
  41.6746190  54.3211840  21.1914830  41.7812940  55.2215570  21.4983590
  40.7638550  54.2729810  20.9009480  51.3265300  53.4436650  22.6625730
  52.1474920  52.9533220  22.7051210  51.3599380  54.0334310  23.4157570
  55.6164850  55.4603400  29.2269360  54.9117020  55.8485110  28.7084470
  55.8822770  56.1553690  29.8290290  48.1861110  62.0416080  21.2893330
  47.5678380  62.5065530  20.7256050  48.6984360  62.7343560  21.7062840
  37.5544310  62.7272610  18.6632960  37.1772290  63.2159710  17.9317860
  37.8117380  63.3997890  19.2939490  54.6313700  54.8291820  25.8262480
  53.6838610  54.8630800  25.9577910  54.9563690  55.6430770  26.2111840
  52.0093720  63.5672510  21.5016100  51.8990050  62.6246840  21.6265520
  52.0061970  63.9288150  22.3878860  47.5514000  59.1937830  20.8578590
  46.6243280  59.1275210  21.0867060  47.7038820  60.1317960  20.7433830
  47.5383080  55.4654830  17.8545750  46.5986750  55.6268790  17.9398210
  47.8566340  56.1840510  17.3081740  51.5811290  60.7558130  21.3613840
  50.9623710  60.4177680  20.7140140  51.5635740  60.1117890  22.0693030
  49.7575990  59.9944940  18.3686590  50.1969270  59.1567370  18.2224410
  50.4704410  60.6274340  18.4550730  47.8671370  64.9341010  22.3367830
  48.3067280  65.6765340  21.9223220  47.8058260  65.1767580  23.2606790
  53.3393130  51.2487750  16.6827630  53.0265790  51.3414580  17.5826700
  54.1005600  51.8268780  16.6325060  39.8575270  58.6147550  21.1404970
  39.7372870  59.3409640  20.5286240  39.5476160  57.8450460  20.6632880
  50.5341550  67.9210130  19.6930840  50.3742690  67.6313070  20.5912670
  50.3688260  67.1450260  19.1576070  50.2367680  65.4297690  18.2528840
  49.5432840  65.4274980  17.5931120  50.9790540  65.0057010  17.8223010
  49.8017610  67.0560400  22.3277330  50.2574560  66.2749780  22.6415950
  50.1410130  67.7667220  22.8718510  54.5494420  55.9859250  32.6601770
  53.9338690  56.4938920  32.1317230  54.2290840  55.0857580  32.6027710
  45.4397750  51.5793320  19.4034470  44.8151930  51.5753190  20.1287780
  45.3527870  50.7124280  19.0070440  42.1153150  57.0816190  22.2509890
  41.8894070  56.8653360  23.1556510  41.3345680  57.5144650  21.9055860
  49.3450910  57.0879560  20.8500540  48.7459800  57.8115360  20.6664160
  49.8930520  57.0256340  20.0676990  37.1750180  56.2564020  16.3136740
  37.0924850  57.1994780  16.4551730  36.8233240  56.1138930  15.4349090
  45.0368460  55.9915130  18.3713850  45.1581280  55.9501610  19.3199670
  44.6516970  56.8539280  18.2160580  44.0489960  58.3016270  17.7697150
  43.4806860  57.8534520  17.1433060  44.7578960  58.6609050  17.2362300
  41.5937440  62.2974460  20.0423560  40.8199700  61.7572080  19.8822280
  42.3232070  61.7781070  19.7041320  47.8135360  52.6877780  19.9779340
  46.9999970  52.1890950  19.9024650  47.6197310  53.5276030  19.5615690
  50.5283750  57.0597430  18.2741500  51.4163370  57.3714660  18.0992840
  50.4988840  56.1869680  17.8822080  46.5244340  63.2321120  18.9529670
  46.8660040  63.9763350  18.4572990  45.6957050  63.5452240  19.3154500
  52.7998020  58.3709270  17.7421360  52.7161740  58.8023490  16.8917800
  53.5192210  58.8307620  18.1748180  53.8285270  65.2251530  20.4703490
  53.1861430  64.5707150  20.7447210  53.4415930  65.6306620  19.6944160
  45.4935030  63.3134650  21.7245590  46.1806160  63.8603860  22.1053180
  44.7067450  63.8575380  21.7595200  37.6327430  58.9307470  17.2162670
  38.5022280  59.2132270  17.4998590  37.1417750  59.7443340  17.1011480
  44.7962240  60.3180680  21.3370950  45.2525020  61.1285930  21.5631140
  44.4450450  60.0003820  22.1689440  52.2182650  64.1167990  17.0079840
  51.9920230  63.3998430  17.6004480  51.8278850  63.8680430  16.1701590
  37.9998680  68.1434850  17.7824300  38.3596320  68.7424190  17.1281570
  37.8591020  68.6894740  18.5559330  51.7998900  62.0339930  18.6694000
  51.5120600  62.4952620  19.4571880  52.5951070  61.5737700  18.9378220
  44.0167300  65.5266050  18.5997970  44.0077400  66.2595740  17.9842480
  43.0965660  65.2797630  18.6924930  39.6173940  60.7480940  19.3444730
  39.0101890  61.4879840  19.3540030  40.0923290  60.8380300  18.5182930
  52.5568760  53.8688700  19.8289180  51.9281920  53.9734370  19.1147410
  52.0620680  54.0885480  20.6183060  47.0026900  65.5894290  17.2623160
  47.1038880  65.3858280  16.3325140  46.1028640  65.3352570  17.4670940
  44.5252790  56.1474650  21.2447060  43.8168940  56.6160990  21.6860670
  44.8097270  55.4896660  21.8792250  48.5568220  52.8725310  22.6842850
  48.4336000  52.8911440  21.7352360  49.5052780  52.9204250  22.8041250
  42.7287810  54.4559730  18.6197770  43.5778340  54.8929880  18.5537960
  42.3619080  54.7679990  19.4469830  53.3575580  53.7839310  30.0867980
  52.8549180  54.5244710  30.4261790  54.1732240  54.1723310  29.7704770
  51.6497590  59.0272490  23.5329340  50.7087730  59.0422720  23.7077030
  51.9641660  58.2408450  23.9789640  41.6279230  60.7092090  17.0933300
  42.3942500  60.5973450  17.6558730  41.7053920  60.0130060  16.4410070
  40.3225990  58.1417160  17.7766190  40.4029580  57.1944670  17.8883590
  41.2145740  58.4724040  17.8826850  38.0086180  64.3586120  20.7542240
  37.0825960  64.6007260  20.7447650  38.4742610  65.1860380  20.6326990
  44.2343010  67.4642860  16.7026300  45.0271620  67.7531690  16.2508090
  43.7147360  67.0335030  16.0238780  53.2873180  66.6912990  18.1263040
  53.0014690  66.2778130  17.3117220  53.0892730  67.6200700  18.0063560
  44.7520410  62.6846270  16.5668650  44.6471050  62.0698620  17.2930030
  44.5844630  62.1612160  15.7831660  47.9923140  61.7466300  17.1710640
  47.4433240  62.1935600  17.8153380  48.6142400  61.2415550  17.6948310
  43.6598260  60.7057220  19.0675940  44.0814680  60.5397090  19.9107330
  43.7849100  59.8957450  18.5731080  46.1725900  59.7294830  16.3153040
  46.6931560  59.0143850  15.9494190  46.8194300  60.3680700  16.6153550
  42.5557160  56.7790450  16.0134100  42.3546220  55.9157810  16.3747440
  42.3849210  56.6923810  15.0755700  50.0345470  51.5898680  18.5420980
  50.3147760  50.7466580  18.8980400  49.2611200  51.8221790  19.0559730
  41.3539960  53.8791070  16.0011980  41.6565860  53.8858500  15.0931130
  42.0934550  53.5288930  16.4979640  44.5724890  52.8225690  16.9868180
  44.2246890  52.1449680  16.4070630  44.7737660  52.3615200  17.8011570
  46.7373930  67.8106440  18.6054780  47.6324720  68.1491410  18.6273540
  46.7691560  67.0885850  17.9779060  40.3770090  63.1833490  16.8341780
  40.8144960  63.7263160  17.4899360  40.8617820  62.3580440  16.8438120
  42.1877810  64.3031530  21.9464010  41.8873350  64.1796500  22.8467920
  42.0815300  63.4440120  21.5379740  54.9569730  64.0827930  16.6490690
  54.1262690  64.1504580  17.1197920  55.1341560  64.9732050  16.3457550
  54.4126190  60.8275410  19.1524890  55.1745100  61.3972060  19.2584580
  54.4280560  60.2602610  19.9233200  55.4186160  61.6825510  23.9966820
  55.7894990  60.8992830  23.5902790  56.0588090  62.3714610  23.8184120
  54.4645360  61.1209780  16.3097410  54.7394200  62.0288660  16.1816630
  54.2756100  61.0572310  17.2459400  50.8620970  54.1454630  17.6051040
  51.2805850  53.9585610  16.7647700  50.5557030  53.2933680  17.9153970
  54.3610700  59.0578770  21.3026840  53.9854300  58.2906700  20.8708130
  53.6313820  59.4401470  21.7901770  53.7510320  58.2050290  30.9366360
  53.5196410  57.9763040  30.0364310  54.0114870  59.1249840  30.8911250
  52.1898390  53.4306720  33.7146060  53.0668570  53.4390120  34.0980060
  52.2019230  52.6937560  33.1038410  37.1268610  56.5612270  19.3257880
  36.2232690  56.8242470  19.1509540  37.6109230  56.8323440  18.5457840
  53.6361660  57.2836260  24.6034080  54.1599140  56.7898910  23.9724250
  54.2221080  57.4186620  25.3481650  53.8151380  57.3676130  28.1253630
  52.8654090  57.3339670  28.2398620  53.9964390  58.2776240  27.8903400
  39.6695820  55.6177810  17.2352260  40.3787520  55.1961030  16.7499540
  38.9535760  55.6853040  16.6035610  39.3169980  51.6717140  16.2754910
  40.0398110  52.2126080  16.5936130  39.5894500  51.3980560  15.3996450
  53.1261630  56.5409610  20.5426490  53.6220750  56.3080480  21.3275370
  52.9277700  55.7021450  20.1264130  54.5548790  55.1770560  23.0764170
  54.4448070  55.0226600  24.0146440  55.3156380  54.6491500  22.8339580
  52.9014510  51.1164690  29.5347170  53.5386730  51.7298830  29.9006360
  53.0489400  51.1525350  28.5896400  55.4439060  53.0078480  16.3170310
  56.3688370  52.8759660  16.1088600  55.4214850  53.0871300  17.2706760
  55.5177550  53.7789140  18.9427020  54.7229050  53.7134260  19.4719930
  55.7220830  54.7139780  18.9312370  52.4595970  67.8180690  22.9365410
  53.0555040  67.4965260  22.2599830  52.7174120  67.3452510  23.7278680
  51.9497480  52.1086020  25.3925850  52.3905570  52.0531120  24.5447450
  51.6805070  53.0244030  25.4636030  53.8136050  51.7401260  23.4034670
  53.7524450  50.7962480  23.2565690  54.5928080  51.8481350  23.9488130
  38.1188800  67.8793620  22.3658620  37.9510840  67.2464300  23.0640510
  37.2523310  68.0853020  22.0152810  38.7416820  51.7110400  19.8690480
  39.4996180  51.8239280  19.2954510  38.2793990  52.5479600  19.8233910
  52.9290210  50.8913680  19.3716140  53.1240840  51.7897130  19.6383570
  52.1420080  50.6600760  19.8649090  39.7251500  66.5726850  19.8108760
  39.1999120  66.9534880  19.1070720  39.6496080  67.1977620  20.5318470
  41.1141970  52.2374450  18.4092450  41.6434730  51.4504250  18.2800400
  41.7470290  52.9165640  18.6427980  43.3079810  51.9749590  21.4637840
  42.6782550  51.2736900  21.6307970  42.7684950  52.7353720  21.2471000
  54.4816820  68.1314390  21.1322700  54.6569010  67.4452130  20.4883620
  53.7838390  68.6561440  20.7399370  42.3244470  68.5209230  18.6858010
  43.0563290  68.2368510  18.1381900  42.5838140  68.2822510  19.5757390
  41.4859260  64.6373960  18.6904340  40.8568140  65.1059060  19.2390170
  41.6007090  63.7923180  19.1250530  48.9408980  58.6879620   4.8405540
  48.8603030  57.7734230   4.5697250  48.5273400  59.1846690   4.1345250
  47.0727020  60.4658640   6.7214810  46.2969120  59.9859080   7.0113380
  47.7239950  59.7864290   6.5470970  41.0892850  60.7778450   7.5990570
  40.2577730  60.5227160   7.9987080  41.6973830  60.8489220   8.3348490
  51.0934450  64.8718830   5.5013940  50.6315980  64.1006070   5.8301110
  51.9060000  64.8984900   6.0066390  41.0694110  64.8118540   7.7948590
  41.3722150  63.9216280   7.6158810  41.8137700  65.3688760   7.5670840
  37.4617810  58.3385990   7.2672660  38.0333920  57.5708190   7.2676300
  37.4619350  58.6374750   6.3579270  47.3197760  67.1576840   5.1217930
  46.7009200  67.6134340   4.5512370  48.1749540  67.3128300   4.7207630
  46.5136010  63.1415830   6.7284970  46.4444290  62.2005770   6.5674100
  47.2755870  63.2317240   7.3007540  38.7042680  53.7470350   9.0541590
  38.5245520  52.8496100   9.3344350  38.3022760  54.2942220   9.7288540
  47.5441180  55.9486210   6.9553900  47.9206000  55.0758090   6.8427570
  47.4460690  56.2844910   6.0644340  41.6746190  54.3211840   2.4171340
  41.7812940  55.2215570   2.7240100  40.7638550  54.2729810   2.1265990
  51.3265300  53.4436650   3.8882240  52.1474920  52.9533220   3.9307720
  51.3599380  54.0334310   4.6414080  39.3229350  56.2430850   7.6623930
  40.0039460  56.5069220   8.2811330  39.0077400  55.4031720   7.9961940
  43.5153920  57.2898210   6.7496520  44.0232140  57.7879180   7.3901540
  44.0467160  56.5133410   6.5735880  55.6164850  55.4603400  10.4525870
  54.9117020  55.8485110   9.9340980  55.8822770  56.1553690  11.0546800
  41.7990020  51.9296770  11.0159940  41.8008460  52.4469160  10.2105840
  40.9694330  51.4526950  10.9929870  48.1861110  62.0416080   2.5149840
  47.5678380  62.5065530   1.9512560  48.6984360  62.7343560   2.9319350
  43.0492870  61.5691950   9.1933440  42.7162250  62.1960870   9.8354510
  43.2259550  62.0953830   8.4135110  51.5626780  55.3837030   6.6609780
  50.8582350  55.6721920   7.2412890  51.9238940  56.1937140   6.3009340
  41.4805350  53.6406730   9.0230390  41.8222160  54.4848780   8.7284260
  40.5421160  53.7890470   9.1395730  42.2611970  63.5372750  11.0082620
  42.8785970  64.2123830  10.7267070  41.4005090  63.9460730  10.9170120
  53.1789560  65.0012160   8.9237260  52.4953080  65.6711270   8.9153930
  53.7183850  65.1992810   8.1582120  54.6313700  54.8291820   7.0518990
  53.6838610  54.8630800   7.1834420  54.9563690  55.6430770   7.4368350
  45.1633240  51.1289000   5.3474980  45.4708220  50.5735890   4.6310480
  44.2333940  51.2633460   5.1647970  50.7148300  66.8456290   7.6382440
  50.7275460  66.4418580   6.7704700  50.1623520  67.6203580   7.5343870
  52.0093720  63.5672510   2.7272610  51.8990050  62.6246840   2.8522030
  52.0061970  63.9288150   3.6135370  50.1133740  61.7486130   8.9665050
  50.5302530  61.5346240   8.1318510  50.8373560  62.0058920   9.5373670
  47.5514000  59.1937830   2.0835100  46.6243280  59.1275210   2.3123570
  47.7038820  60.1317960   1.9690340  54.0595840  60.1473350   9.0581290
  53.2314470  60.2166440   8.5831420  54.6546320  60.7327660   8.5897120
  51.5811290  60.7558130   2.5870350  50.9623710  60.4177680   1.9396650
  51.5635740  60.1117890   3.2949540  51.0237850  56.9342670  10.0036160
  50.6109030  57.7596380  10.2576150  50.2913800  56.3487710   9.8112520
  43.1570640  59.7202570   4.8654830  42.7527640  59.0079820   4.3700730
  43.2433760  59.3755810   5.7542870  43.6252340  63.4070130   7.0294040
  43.3280630  62.8015600   6.3501820  44.5752160  63.4447440   6.9183400
  41.8699260  56.4945780   8.6453870  42.4213850  56.6041120   7.8707120
  42.3842770  56.8683380   9.3609100  51.7137950  66.9802000  10.6917140
  51.2368510  67.7874190  10.4989750  51.0299740  66.3280330  10.8443350
  42.7170770  63.1451820  13.6801840  41.8199300  63.3691790  13.9275240
  42.7423640  63.2686760  12.7313240  41.5441990  60.0165140  12.2559210
  41.4049760  60.8887940  12.6246610  40.6623350  59.6737950  12.1107150
  47.8671370  64.9341010   3.5624340  48.3067280  65.6765340   3.1479730
  47.8058260  65.1767580   4.4863300  43.3422340  65.9586840  14.4644360
  43.3137770  66.3629790  13.5972790  43.1787310  65.0297200  14.3015960
  39.8575270  58.6147550   2.3661480  39.7372870  59.3409640   1.7542750
  39.5476160  57.8450460   1.8889390  55.2937160  66.7413940  15.7608530
  55.7696880  67.2196830  16.4397610  55.9144320  66.6731430  15.0354030
  37.4960640  61.7862690   8.1730120  37.5741060  61.9211460   7.2285840
  38.1102320  61.0778580   8.3658240  38.7408270  63.4862880   4.5836300
  38.3336350  63.6277470   3.7289900  39.6321280  63.2023040   4.3807510
  54.6970410  63.9326790  12.9208540  54.8233470  63.6938670  12.0025720
  54.7391790  63.1011330  13.3930620  48.5587150  67.6354790  11.4903350
  49.0731820  67.5462800  12.2925780  47.7156230  67.9814490  11.7831260
  43.0129930  67.7008660   2.6958970  42.8372410  66.7844200   2.4826770
  42.1585670  68.0595950   2.9356770  49.8017610  67.0560400   3.5533840
  50.2574560  66.2749780   3.8672460  50.1410130  67.7667220   4.0975020
  54.5494420  55.9859250  13.8858280  53.9338690  56.4938920  13.3573740
  54.2290840  55.0857580  13.8284220  37.5520160  62.8276860  10.7124580
  37.7151200  62.3582220   9.8943950  38.0172610  62.3200420  11.3773420
  42.3238930  51.9582620   5.7485150  41.8807080  52.7392160   5.4169670
  42.8823920  52.2812510   6.4556090  46.6108740  54.8251140  11.3520470
  46.1488110  55.0334160  12.1640410  46.2086850  54.0110490  11.0491140
  51.6113250  56.0460090  12.4817130  50.7606840  55.7465840  12.8026200
  51.4515040  56.2902100  11.5700950  48.7062960  57.5461840  14.5815920
  49.0316370  56.7125590  14.2418150  49.4943290  58.0690360  14.7294250
  44.3614830  52.5029950   7.6074750  44.6587160  53.4092780   7.5266770
  44.9100390  52.0148730   6.9934320  42.1153150  57.0816190   3.4766400
  41.8894070  56.8653360   4.3813020  41.3345680  57.5144650   3.1312370
  44.5552360  57.9801770  14.1426670  44.4595960  57.0396500  13.9927070
  45.3984340  58.2016840  13.7474740  47.9515780  55.7243100   4.1060330
  48.3445350  56.0415300   3.2929020  48.3132630  54.8454980   4.2204850
  39.6862900  54.3915440  12.2960450  39.2926290  55.2390650  12.5033230
  38.9981300  53.7541810  12.4869090  46.2607950  54.4750410  15.3657190
  45.5706270  54.2822610  16.0003280  47.0040250  54.7585050  15.8981490
  36.9879950  52.3143900   6.3290530  36.6993000  52.8846760   7.0415510
  37.7325710  51.8348350   6.6921760  48.5370920  58.3148850   8.2011110
  47.8052040  58.8235660   8.5501210  48.1395260  57.4978830   7.8999890
  44.9748310  54.9903050   6.6063600  44.9784370  54.5493000   5.7568140
  45.8699430  55.3120380   6.7135420  40.8250690  54.8729540   5.5657810
  40.4850740  55.3504770   6.3224860  40.0628010  54.4194660   5.2058910
  48.9996830  53.7682530   7.6134050  49.0169570  54.2191180   8.4575900
  48.7512410  52.8688170   7.8267490  52.4267580  51.1814710  13.4520430
  52.7513350  50.4504370  13.9778410  52.4624090  50.8628350  12.5501420
  39.1259140  62.2028290  12.8720390  38.7413930  61.5621960  13.4703350
  39.4371330  62.9064410  13.4415120  45.2756280  59.0504830   8.3529010
  45.6426410  58.5763400   9.0990350  45.0861340  59.9246400   8.6937350
  38.1396770  53.7948520   4.4822480  37.8543690  53.4304190   5.3201100
  38.0775630  53.0628980   3.8685620  43.0655650  58.0913470  10.6713220
  42.7612720  58.9705450  10.8963580  44.0202110  58.1513260  10.7070660
  52.3525420  61.2939820   7.0606460  53.0724540  61.7895110   6.6702570
  52.1507240  60.6157710   6.4160330  47.7344220  61.3648880  12.9475460
  47.6681530  60.4444550  12.6933050  47.1049360  61.4624320  13.6620100
  41.6374840  61.9654840   4.9058880  42.1553510  61.1623100   4.8515770
  41.1858860  61.9033980   5.7475710  39.1219380  58.9316210  11.8184580
  38.7634320  59.5970060  12.4057920  38.8273940  58.0999760  12.1897200
  42.3232500  59.3900450  14.7024130  42.0232640  59.5357630  13.8051950
  43.0943740  58.8305740  14.6097520  47.6660950  64.1869450  12.6979260
  47.6805490  63.2550410  12.4798170  46.9586050  64.2729210  13.3369030
  53.8772160  60.8276790  12.0447840  53.1520350  61.4205570  11.8477230
  54.4047620  60.8200330  11.2461210  49.4071750  62.5536960   5.5431690
  49.7595570  61.9565090   4.8833060  48.5234080  62.2281190   5.7139940
  45.4935030  63.3134650   2.9502100  46.1806160  63.8603860   3.3309690
  44.7067450  63.8575380   2.9851710  44.7962240  60.3180680   2.5627460
  45.2525020  61.1285930   2.7887650  44.4450450  60.0003820   3.3945950
  47.0994850  65.8287020   9.7919760  47.7437070  66.0346400  10.4693180
  47.4624290  65.0675420   9.3390610  40.6974020  50.6618330   3.0349980
  40.5688650  50.6536230   3.9834900  39.8736040  51.0001420   2.6840990
  48.3726930  63.8319370   8.5097210  49.0149160  63.1312530   8.6229380
  48.8976280  64.6117810   8.3294100  50.1464550  64.6314270  11.7133270
  50.4820790  65.2180960  12.3911190  49.2264890  64.5006980  11.9431060
  37.6967950  52.4209450  12.4956680  36.9826470  52.6206370  13.1009290
  38.1162990  51.6449020  12.8671480  37.9840540  66.4089710  13.4823210
  38.0931660  65.4684450  13.3418600  37.3321100  66.6744460  12.8336940
  45.9753130  64.6805600  14.8821330  45.6550000  63.9614840  15.4267020
  45.3011490  65.3560670  14.9557390  49.1906730  54.9131760  10.2458130
  49.5587550  54.0926970  10.5737700  48.3304930  54.9733650  10.6613780
  44.5252790  56.1474650   2.4703570  43.8168940  56.6160990   2.9117180
  44.8097270  55.4896660   3.1048760  46.1508720  57.5671350  10.4696100
  46.6493970  58.0417170  11.1347950  46.2931670  56.6434870  10.6766130
  48.5568220  52.8725310   3.9099360  48.4336000  52.8911440   2.9608870
  49.5052780  52.9204250   4.0297760  45.6445010  68.1080610   3.1827340
  45.8986510  68.0702000   2.2606710  44.6957490  67.9813940   3.1755590
  53.3575580  53.7839310  11.3124490  52.8549180  54.5244710  11.6518300
  54.1732240  54.1723310  10.9961280  51.6497590  59.0272490   4.7585850
  50.7087730  59.0422720   4.9333540  51.9641660  58.2408450   5.2046150
  53.6523170  66.1981340   6.4340110  53.7770590  67.0212510   6.9063920
  54.5188730  65.9872070   6.0864260  41.1240700  68.2912550   6.1057240
  41.8603180  67.7428010   6.3765810  41.5081620  69.1568560   5.9663230
  38.0086180  64.3586120   1.9798750  37.0825960  64.6007260   1.9704160
  38.4742610  65.1860380   1.8583500  40.1298980  67.4758620  15.2942820
  40.9311710  67.7970670  15.7078220  39.6150800  67.1154200  16.0162730
  48.9663610  63.5838490  15.2418230  48.3601770  63.6070090  14.5013980
  48.6617720  62.8521530  15.7785480  50.3963980  67.3118780  13.8527640
  51.3485730  67.2276800  13.8027880  50.2492200  67.9760490  14.5261430
  37.8496790  59.9632080  14.2378870  38.3535810  59.3839360  14.8095100
  37.1104210  60.2472310  14.7755240  44.9034730  61.3703070  13.7714390
  44.1380400  61.9388070  13.6869060  45.0850690  61.0779280  12.8782620
  52.0458080  63.1008400  14.3289410  52.7867550  63.4384160  13.8256870
  51.2830760  63.2700460  13.7759180  39.8819870  58.1061670  15.1328940
  39.9225210  57.8075540  16.0414170  40.7365370  58.5069280  14.9736460
  41.8225680  56.6853770  13.1003430  41.2922140  56.1944720  12.4726770
  42.4913750  57.1137970  12.5661360  50.7203740  61.1523230  12.8644620
  51.1344760  61.3068310  13.7135040  49.7854740  61.2778450  13.0270400
  51.1925910  58.4919390  14.8683770  51.7746680  57.7371710  14.7804250
  51.3687680  59.0226830  14.0915250  42.3097980  53.6516140  13.1800720
  42.2154850  53.0336890  12.4551590  41.7295370  54.3782430  12.9530630
  45.0759420  52.2089380  10.2128110  44.6276720  52.2313640   9.3673660
  44.4424620  51.8108400  10.8098410  45.4818970  61.1043710  10.8340550
  45.9007080  61.9476440  10.6616790  44.5627600  61.2415750  10.6047330
  47.8182870  58.8359890  12.2178390  47.9379080  58.2401030  12.9573230
  48.6776870  58.8729580  11.7979690  50.1570770  59.3897080  10.7940900
  49.6305990  59.9139700  10.1906040  50.5002110  60.0224470  11.4250630
  43.3326390  67.4096720  11.9498280  42.7947480  68.1342780  11.6306980
  43.5860350  66.9327060  11.1595620  44.5851640  55.3781240  13.4754210
  45.1751330  55.0697090  14.1632030  43.7671880  54.9060990  13.6314110
  49.4045070  54.9947050  13.7087230  48.7160590  54.3328590  13.6437220
  50.1251090  54.5485320  14.1535690  46.1888600  68.6447930  12.2084930
  46.1147300  69.5483070  12.5157300  45.2867440  68.3259830  12.1807000
  37.5915890  65.9722520   5.5118550  37.9218900  65.1043580   5.2797190
  38.0206890  66.1781040   6.3423510  42.1877810  64.3031530   3.1720520
  41.8873350  64.1796500   4.0724430  42.0815300  63.4440120   2.7636250
  38.0806100  66.8393110   8.2500180  37.6437090  67.0193910   9.0824330
  38.6483780  67.5967730   8.1081900  53.7168280  66.3410110  12.5377490
  53.1170270  66.4002670  11.7941410  53.8462180  65.4015090  12.6674340
  37.9130530  59.3513340   4.6089060  37.2579370  59.0824980   3.9648760
  38.7508480  59.2417820   4.1591040  55.4186160  61.6825510   5.2223330
  55.7894990  60.8992830   4.8159300  56.0588090  62.3714610   5.0440630
  52.4019920  63.0662090  10.6353650  51.5879760  63.4959250  10.8979440
  52.8094120  63.6780500  10.0222700  54.3610700  59.0578770   2.5283350
  53.9854300  58.2906700   2.0964640  53.6313820  59.4401470   3.0158280
  38.9506460  59.7365910   9.1492400  39.3179500  59.6493310  10.0288420
  38.3817280  58.9732460   9.0499260  53.7510320  58.2050290  12.1622870
  53.5196410  57.9763040  11.2620820  54.0114870  59.1249840  12.1167760
  38.5022460  56.6475000  13.0550820  37.6078510  56.6141760  13.3944530
  39.0420010  56.8461790  13.8202070  52.1898390  53.4306720  14.9402570
  53.0668570  53.4390120  15.3236570  52.2019230  52.6937560  14.3294920
  53.6361660  57.2836260   5.8290590  54.1599140  56.7898910   5.1980760
  54.2221080  57.4186620   6.5738160  53.8151380  57.3676130   9.3510140
  52.8654090  57.3339670   9.4655130  53.9964390  58.2776240   9.1159910
  53.1261630  56.5409610   1.7683000  53.6220750  56.3080480   2.5531880
  52.9277700  55.7021450   1.3520640  39.0062170  50.9223330   7.4034040
  39.6538360  50.3720710   6.9629200  39.4264010  51.1766480   8.2249850
  54.5548790  55.1770560   4.3020680  54.4448070  55.0226600   5.2402950
  55.3156380  54.6491500   4.0596090  52.9014510  51.1164690  10.7603680
  53.5386730  51.7298830  11.1262870  53.0489400  51.1525350   9.8152910
  52.4595970  67.8180690   4.1621920  53.0555040  67.4965260   3.4856340
  52.7174120  67.3452510   4.9535190  38.7594170  51.0779000  10.1459360
  38.4108990  51.5342820  10.9117540  38.4281870  50.1836130  10.2281790
  40.3658540  64.2498600  14.3112550  40.3228170  63.8791510  15.1927010
  40.4969550  65.1876170  14.4514370  44.0664570  65.8058190   9.9122270
  43.8255930  66.0732750   9.0252790  45.0067210  65.9763920   9.9673130
  46.2718990  52.2690880  13.6678780  46.2107880  52.8612710  14.4174190
  47.2119370  52.1616840  13.5229040  48.9093550  51.9260940  13.3071070
  49.5233960  52.2440230  12.6452150  49.4543110  51.4409530  13.9266930
  55.3268730  67.8252570  10.7132910  54.8327010  68.2221440   9.9960040
  54.7182020  67.2001780  11.1070190  39.4314810  50.6055200  13.4210130
  39.9797800  50.4243250  12.6576240  39.4970120  49.8149310  13.9566440
  40.2046570  67.1960850  11.4310330  39.6106890  67.0645550  12.1700370
  40.1970410  66.3598990  10.9652430  49.6501590  50.4893080   9.6340360
  48.7761430  50.8228190   9.4313290  49.5412340  50.0166260  10.4592230
  50.5573570  52.6963950  11.0182080  50.2286930  51.8815710  10.6383810
  51.5055870  52.6533760  10.8947770  53.0108180  68.4675990   7.9919650
  52.5511150  69.2191800   7.6177670  52.3820640  67.7482460   7.9334450
  39.8358800  64.5619230  10.3818370  39.1092860  63.9424520  10.3144320
  39.8967950  64.9559840   9.5116450  43.4403900  66.7764230   7.1667780
  43.9568920  66.1651590   6.6416040  44.0901280  67.2793010   7.6578790
  46.1799400  67.6672720   7.9936760  46.4677210  67.4127020   7.1169770
  46.6922620  67.1150080   8.5842330  47.3976410  51.4062920   8.5733270
  46.6148200  51.8808420   8.8530030  47.1039340  50.5017750   8.4646450
  51.9497480  52.1086020   6.6182360  52.3905570  52.0531120   5.7703960
  51.6805070  53.0244030   6.6892540  53.8136050  51.7401260   4.6291180
  53.7524450  50.7962480   4.4822200  54.5928080  51.8481350   5.1744640
  38.1188800  67.8793620   3.5915130  37.9510840  67.2464300   4.2897020
  37.2523310  68.0853020   3.2409320  45.2830630  53.8249670   4.0849300
  44.4705140  53.4506560   3.7445180  45.7872270  53.0694750   4.3870490
  49.7855610  50.4892120   5.3232370  50.3884980  51.0612330   5.7980890
  49.0448600  51.0531560   5.1006270  43.3079810  51.9749590   2.6894350
  42.6782550  51.2736900   2.8564480  42.7684950  52.7353720   2.4727510
  46.2471760  68.5888820  15.3604960  47.1739070  68.3533090  15.4040920
  46.2322190  69.4160820  14.8790990  54.4816820  68.1314390   2.3579210
  54.6569010  67.4452130   1.7140130  53.7838390  68.6561440   1.9655880
  43.4335370  51.2533570  15.1246840  43.1519640  51.7567170  14.3607660
  43.8155070  50.4555320  14.7588970  50.0350830  50.6687150  15.7027310
  49.9216280  50.9881760  16.5978830  50.8520570  51.0699660  15.4064590
  52.8149320  67.8158680  15.1846000  53.6074640  67.3207910  14.9771960
  53.1082470  68.4948820  15.7921610  48.9408980  39.9136130  61.1636010
  48.8603030  38.9990740  60.8927720  48.5273400  40.4103200  60.4575720
  47.0727020  41.6915150  63.0445280  46.2969120  41.2115590  63.3343850
  47.7239950  41.0120800  62.8701440  41.0892850  42.0034960  63.9221040
  40.2577730  41.7483670  64.3217550  41.6973830  42.0745730  64.6578960
  51.0934450  46.0975340  61.8244410  50.6315980  45.3262580  62.1531580
  51.9060000  46.1241410  62.3296860  41.0694110  46.0375050  64.1179060
  41.3722150  45.1472790  63.9389280  41.8137700  46.5945270  63.8901310
  39.4984800  36.9636850  57.7063430  38.6101500  37.3052820  57.6043310
  39.7825990  36.7637170  56.8144260  37.4617810  39.5642500  63.5903130
  38.0333920  38.7964700  63.5906770  37.4619350  39.8631260  62.6809740
  47.3197760  48.3833350  61.4448400  46.7009200  48.8390850  60.8742840
  48.1749540  48.5384810  61.0438100  46.5136010  44.3672340  63.0515440
  46.4444290  43.4262280  62.8904570  47.2755870  44.4573750  63.6238010
  38.7042680  34.9726860  65.3772060  38.5245520  34.0752610  65.6574820
  38.3022760  35.5198730  66.0519010  47.5441180  37.1742720  63.2784370
  47.9206000  36.3014600  63.1658040  47.4460690  37.5101420  62.3874810
  41.6746190  35.5468350  58.7401810  41.7812940  36.4472080  59.0470570
  40.7638550  35.4986320  58.4496460  51.3265300  34.6693160  60.2112710
  52.1474920  34.1789730  60.2538190  51.3599380  35.2590820  60.9644550
  39.3229350  37.4687360  63.9854400  40.0039460  37.7325730  64.6041800
  39.0077400  36.6288230  64.3192410  43.5153920  38.5154720  63.0726990
  44.0232140  39.0135690  63.7132010  44.0467160  37.7389920  62.8966350
  55.6164850  36.6859910  66.7756340  54.9117020  37.0741620  66.2571450
  55.8822770  37.3810200  67.3777270  41.7990020  33.1553280  67.3390410
  41.8008460  33.6725670  66.5336310  40.9694330  32.6783460  67.3160340
  48.1861110  43.2672590  58.8380310  47.5678380  43.7322040  58.2743030
  48.6984360  43.9600070  59.2549820  43.0492870  42.7948460  65.5163910
  42.7162250  43.4217380  66.1584980  43.2259550  43.3210340  64.7365580
  51.5626780  36.6093540  62.9840250  50.8582350  36.8978430  63.5643360
  51.9238940  37.4193650  62.6239810  41.4805350  34.8663240  65.3460860
  41.8222160  35.7105290  65.0514730  40.5421160  35.0146980  65.4626200
  42.2611970  44.7629260  67.3313090  42.8785970  45.4380340  67.0497540
  41.4005090  45.1717240  67.2400590  37.5544310  43.9529120  56.2119940
  37.1772290  44.4416220  55.4804840  37.8117380  44.6254400  56.8426470
  53.1789560  46.2268670  65.2467730  52.4953080  46.8967780  65.2384400
  53.7183850  46.4249320  64.4812590  54.6313700  36.0548330  63.3749460
  53.6838610  36.0887310  63.5064890  54.9563690  36.8687280  63.7598820
  45.1633240  32.3545510  61.6705450  45.4708220  31.7992400  60.9540950
  44.2333940  32.4889970  61.4878440  50.7148300  48.0712800  63.9612910
  50.7275460  47.6675090  63.0935170  50.1623520  48.8460090  63.8574340
  52.0093720  44.7929020  59.0503080  51.8990050  43.8503350  59.1752500
  52.0061970  45.1544660  59.9365840  50.1133740  42.9742640  65.2895520
  50.5302530  42.7602750  64.4548980  50.8373560  43.2315430  65.8604140
  47.5514000  40.4194340  58.4065570  46.6243280  40.3531720  58.6354040
  47.7038820  41.3574470  58.2920810  47.5383080  36.6911340  55.4032730
  46.5986750  36.8525300  55.4885190  47.8566340  37.4097020  54.8568720
  54.0595840  41.3729860  65.3811760  53.2314470  41.4422950  64.9061890
  54.6546320  41.9584170  64.9127590  51.5811290  41.9814640  58.9100820
  50.9623710  41.6434190  58.2627120  51.5635740  41.3374400  59.6180010
  51.0237850  38.1599180  66.3266630  50.6109030  38.9852890  66.5806620
  50.2913800  37.5744220  66.1342990  43.1570640  40.9459080  61.1885300
  42.7527640  40.2336330  60.6931200  43.2433760  40.6012320  62.0773340
  43.6252340  44.6326640  63.3524510  43.3280630  44.0272110  62.6732290
  44.5752160  44.6703950  63.2413870  41.8699260  37.7202290  64.9684340
  42.4213850  37.8297630  64.1937590  42.3842770  38.0939890  65.6839570
  51.7137950  48.2058510  67.0147610  51.2368510  49.0130700  66.8220220
  51.0299740  47.5536840  67.1673820  49.7575990  41.2201450  55.9173570
  50.1969270  40.3823880  55.7711390  50.4704410  41.8530850  56.0037710
  47.8671370  46.1597520  59.8854810  48.3067280  46.9021850  59.4710200
  47.8058260  46.4024090  60.8093770  53.3393130  32.4744260  54.2314610
  53.0265790  32.5671090  55.1313680  54.1005600  33.0525290  54.1812040
  39.8575270  39.8404060  58.6891950  39.7372870  40.5666150  58.0773220
  39.5476160  39.0706970  58.2119860  37.4960640  43.0119200  64.4960590
  37.5741060  43.1467970  63.5516310  38.1102320  42.3035090  64.6888710
  38.7408270  44.7119390  60.9066770  38.3336350  44.8533980  60.0520370
  39.6321280  44.4279550  60.7037980  50.5341550  49.1466640  57.2417820
  50.3742690  48.8569580  58.1399650  50.3688260  48.3706770  56.7063050
  43.0129930  48.9265170  59.0189440  42.8372410  48.0100710  58.8057240
  42.1585670  49.2852460  59.2587240  50.2367680  46.6554200  55.8015820
  49.5432840  46.6531490  55.1418100  50.9790540  46.2313520  55.3709990
  49.8017610  48.2816910  59.8764310  50.2574560  47.5006290  60.1902930
  50.1410130  48.9923730  60.4205490  37.5520160  44.0533370  67.0355050
  37.7151200  43.5838730  66.2174420  38.0172610  43.5456930  67.7003890
  42.3238930  33.1839130  62.0715620  41.8807080  33.9648670  61.7400140
  42.8823920  33.5069020  62.7786560  45.4397750  32.8049830  56.9521450
  44.8151930  32.8009700  57.6774760  45.3527870  31.9380790  56.5557420
  44.3614830  33.7286460  63.9305220  44.6587160  34.6349290  63.8497240
  44.9100390  33.2405240  63.3164790  42.1153150  38.3072700  59.7996870
  41.8894070  38.0909870  60.7043490  41.3345680  38.7401160  59.4542840
  49.3450910  38.3136070  58.3987520  48.7459800  39.0371870  58.2151140
  49.8930520  38.2512850  57.6163970  47.9515780  36.9499610  60.4290800
  48.3445350  37.2671810  59.6159490  48.3132630  36.0711490  60.5435320
  36.9879950  33.5400410  62.6521000  36.6993000  34.1103270  63.3645980
  37.7325710  33.0604860  63.0152230  37.1750180  37.4820530  53.8623720
  37.0924850  38.4251290  54.0038710  36.8233240  37.3395440  52.9836070
  48.5370920  39.5405360  64.5241580  47.8052040  40.0492170  64.8731680
  48.1395260  38.7235340  64.2230360  44.9748310  36.2159560  62.9294070
  44.9784370  35.7749510  62.0798610  45.8699430  36.5376890  63.0365890
  40.8250690  36.0986050  61.8888280  40.4850740  36.5761280  62.6455330
  40.0628010  35.6451170  61.5289380  45.0368460  37.2171640  55.9200830
  45.1581280  37.1758120  56.8686650  44.6516970  38.0795790  55.7647560
  48.9996830  34.9939040  63.9364520  49.0169570  35.4447690  64.7806370
  48.7512410  34.0944680  64.1497960  44.0489960  39.5272780  55.3184130
  43.4806860  39.0791030  54.6920040  44.7578960  39.8865560  54.7849280
  45.2756280  40.2761340  64.6759480  45.6426410  39.8019910  65.4220820
  45.0861340  41.1502910  65.0167820  38.1396770  35.0205030  60.8052950
  37.8543690  34.6560700  61.6431570  38.0775630  34.2885490  60.1916090
  43.0655650  39.3169980  66.9943690  42.7612720  40.1961960  67.2194050
  44.0202110  39.3769770  67.0301130  41.5937440  43.5230970  57.5910540
  40.8199700  42.9828590  57.4309260  42.3232070  43.0037580  57.2528300
  52.3525420  42.5196330  63.3836930  53.0724540  43.0151620  62.9933040
  52.1507240  41.8414220  62.7390800  47.8135360  33.9134290  57.5266320
  46.9999970  33.4147460  57.4511630  47.6197310  34.7532540  57.1102670
  50.5283750  38.2853940  55.8228480  51.4163370  38.5971170  55.6479820
  50.4988840  37.4126190  55.4309060  41.6374840  43.1911350  61.2289350
  42.1553510  42.3879610  61.1746240  41.1858860  43.1290490  62.0706180
  46.5244340  44.4577630  56.5016650  46.8660040  45.2019860  56.0059970
  45.6957050  44.7708750  56.8641480  52.7998020  39.5965780  55.2908340
  52.7161740  40.0280000  54.4404780  53.5192210  40.0564130  55.7235160
  53.8285270  46.4508040  58.0190470  53.1861430  45.7963660  58.2934190
  53.4415930  46.8563130  57.2431140  49.4071750  43.7793470  61.8662160
  49.7595570  43.1821600  61.2063530  48.5234080  43.4537700  62.0370410
  45.4935030  44.5391160  59.2732570  46.1806160  45.0860370  59.6540160
  44.7067450  45.0831890  59.3082180  37.6327430  40.1563980  54.7649650
  38.5022280  40.4388780  55.0485570  37.1417750  40.9699850  54.6498460
  44.7962240  41.5437190  58.8857930  45.2525020  42.3542440  59.1118120
  44.4450450  41.2260330  59.7176420  47.0994850  47.0543530  66.1150230
  47.7437070  47.2602910  66.7923650  47.4624290  46.2931930  65.6621080
  40.6974020  31.8874840  59.3580450  40.5688650  31.8792740  60.3065370
  39.8736040  32.2257930  59.0071460  48.3726930  45.0575880  64.8327680
  49.0149160  44.3569040  64.9459850  48.8976280  45.8374320  64.6524570
  52.2182650  45.3424500  54.5566820  51.9920230  44.6254940  55.1491460
  51.8278850  45.0936940  53.7188570  37.9998680  49.3691360  55.3311280
  38.3596320  49.9680700  54.6768550  37.8591020  49.9151250  56.1046310
  51.7998900  43.2596440  56.2180980  51.5120600  43.7209130  57.0058860
  52.5951070  42.7994210  56.4865200  44.0167300  46.7522560  56.1484950
  44.0077400  47.4852250  55.5329460  43.0965660  46.5054140  56.2411910
  39.6173940  41.9737450  56.8931710  39.0101890  42.7136350  56.9027010
  40.0923290  42.0636810  56.0669910  49.1906730  36.1388270  66.5688600
  49.5587550  35.3183480  66.8968170  48.3304930  36.1990160  66.9844250
  52.5568760  35.0945210  57.3776160  51.9281920  35.1990880  56.6634390
  52.0620680  35.3141990  58.1670040  47.0026900  46.8150800  54.8110140
  47.1038880  46.6114790  53.8812120  46.1028640  46.5609080  55.0157920
  44.5252790  37.3731160  58.7934040  43.8168940  37.8417500  59.2347650
  44.8097270  36.7153170  59.4279230  46.1508720  38.7927860  66.7926570
  46.6493970  39.2673680  67.4578420  46.2931670  37.8691380  66.9996600
  48.5568220  34.0981820  60.2329830  48.4336000  34.1167950  59.2839340
  49.5052780  34.1460760  60.3528230  45.6445010  49.3337120  59.5057810
  45.8986510  49.2958510  58.5837180  44.6957490  49.2070450  59.4986060
  42.7287810  35.6816240  56.1684750  43.5778340  36.1186390  56.1024940
  42.3619080  35.9936500  56.9956810  51.6497590  40.2529000  61.0816320
  50.7087730  40.2679230  61.2564010  51.9641660  39.4664960  61.5276620
  41.6279230  41.9348600  54.6420280  42.3942500  41.8229960  55.2045710
  41.7053920  41.2386570  53.9897050  40.3225990  39.3673670  55.3253170
  40.4029580  38.4201180  55.4370570  41.2145740  39.6980550  55.4313830
  53.6523170  47.4237850  62.7570580  53.7770590  48.2469020  63.2294390
  54.5188730  47.2128580  62.4094730  41.1240700  49.5169060  62.4287710
  41.8603180  48.9684520  62.6996280  41.5081620  50.3825070  62.2893700
  38.0086180  45.5842630  58.3029220  37.0825960  45.8263770  58.2934630
  38.4742610  46.4116890  58.1813970  44.2343010  48.6899370  54.2513280
  45.0271620  48.9788200  53.7995070  43.7147360  48.2591540  53.5725760
  53.2873180  47.9169500  55.6750020  53.0014690  47.5034640  54.8604200
  53.0892730  48.8457210  55.5550540  44.7520410  43.9102780  54.1155630
  44.6471050  43.2955130  54.8417010  44.5844630  43.3868670  53.3318640
  47.9923140  42.9722810  54.7197620  47.4433240  43.4192110  55.3640360
  48.6142400  42.4672060  55.2435290  43.6598260  41.9313730  56.6162920
  44.0814680  41.7653600  57.4594310  43.7849100  41.1213960  56.1218060
  46.1725900  40.9551340  53.8640020  46.6931560  40.2400360  53.4981170
  46.8194300  41.5937210  54.1640530  45.0759420  33.4345890  66.5358580
  44.6276720  33.4570150  65.6904130  44.4424620  33.0364910  67.1328880
  45.4818970  42.3300220  67.1571020  45.9007080  43.1732950  66.9847260
  44.5627600  42.4672260  66.9277800  50.1570770  40.6153590  67.1171370
  49.6305990  41.1396210  66.5136510  50.5002110  41.2480980  67.7481100
  42.5557160  38.0046960  53.5621080  42.3546220  37.1414320  53.9234420
  42.3849210  37.9180320  52.6242680  50.0345470  32.8155190  56.0907960
  50.3147760  31.9723090  56.4467380  49.2611200  33.0478300  56.6046710
  41.3539960  35.1047580  53.5498960  41.6565860  35.1115010  52.6418110
  42.0934550  34.7545440  54.0466620  44.5724890  34.0482200  54.5355160
  44.2246890  33.3706190  53.9557610  44.7737660  33.5871710  55.3498550
  46.7373930  49.0362950  56.1541760  47.6324720  49.3747920  56.1760520
  46.7691560  48.3142360  55.5266040  40.3770090  44.4090000  54.3828760
  40.8144960  44.9519670  55.0386340  40.8617820  43.5836950  54.3925100
  37.5915890  47.1979030  61.8349020  37.9218900  46.3300090  61.6027660
  38.0206890  47.4037550  62.6653980  42.1877810  45.5288040  59.4950990
  41.8873350  45.4053010  60.3954900  42.0815300  44.6696630  59.0866720
  38.0806100  48.0649620  64.5730650  37.6437090  48.2450420  65.4054800
  38.6483780  48.8224240  64.4312370  54.9569730  45.3084440  54.1977670
  54.1262690  45.3761090  54.6684900  55.1341560  46.1988560  53.8944530
  54.4126190  42.0531920  56.7011870  55.1745100  42.6228570  56.8071560
  54.4280560  41.4859120  57.4720180  37.9130530  40.5769850  60.9319530
  37.2579370  40.3081490  60.2879230  38.7508480  40.4674330  60.4821510
  55.4186160  42.9082020  61.5453800  55.7894990  42.1249340  61.1389770
  56.0588090  43.5971120  61.3671100  52.4019920  44.2918600  66.9584120
  51.5879760  44.7215760  67.2209910  52.8094120  44.9037010  66.3453170
  54.4645360  42.3466290  53.8584390  54.7394200  43.2545170  53.7303610
  54.2756100  42.2828820  54.7946380  50.8620970  35.3711140  55.1538020
  51.2805850  35.1842120  54.3134680  50.5557030  34.5190190  55.4640950
  54.3610700  40.2835280  58.8513820  53.9854300  39.5163210  58.4195110
  53.6313820  40.6657980  59.3388750  38.9506460  40.9622420  65.4722870
  39.3179500  40.8749820  66.3518890  38.3817280  40.1988970  65.3729730
  37.1268610  37.7868780  56.8744860  36.2232690  38.0498980  56.6996520
  37.6109230  38.0579950  56.0944820  53.6361660  38.5092770  62.1521060
  54.1599140  38.0155420  61.5211230  54.2221080  38.6443130  62.8968630
  53.8151380  38.5932640  65.6740610  52.8654090  38.5596180  65.7885600
  53.9964390  39.5032750  65.4390380  39.6695820  36.8434320  54.7839240
  40.3787520  36.4217540  54.2986520  38.9535760  36.9109550  54.1522590
  39.3169980  32.8973650  53.8241890  40.0398110  33.4382590  54.1423110
  39.5894500  32.6237070  52.9483430  53.1261630  37.7666120  58.0913470
  53.6220750  37.5336990  58.8762350  52.9277700  36.9277960  57.6751110
  39.0062170  32.1479840  63.7264510  39.6538360  31.5977220  63.2859670
  39.4264010  32.4022990  64.5480320  54.5548790  36.4027070  60.6251150
  54.4448070  36.2483110  61.5633420  55.3156380  35.8748010  60.3826560
  52.9014510  32.3421200  67.0834150  53.5386730  32.9555340  67.4493340
  53.0489400  32.3781860  66.1383380  55.4439060  34.2334990  53.8657290
  56.3688370  34.1016170  53.6575580  55.4214850  34.3127810  54.8193740
  55.5177550  35.0045650  56.4914000  54.7229050  34.9390770  57.0206910
  55.7220830  35.9396290  56.4799350  52.4595970  49.0437200  60.4852390
  53.0555040  48.7221770  59.8086810  52.7174120  48.5709020  61.2765660
  38.7594170  32.3035510  66.4689830  38.4108990  32.7599330  67.2348010
  38.4281870  31.4092640  66.5512260  44.0664570  47.0314700  66.2352740
  43.8255930  47.2989260  65.3483260  45.0067210  47.2020430  66.2903600
  55.3268730  49.0509080  67.0363380  54.8327010  49.4477950  66.3190510
  54.7182020  48.4258290  67.4300660  49.6501590  31.7149590  65.9570830
  48.7761430  32.0484700  65.7543760  49.5412340  31.2422770  66.7822700
  50.5573570  33.9220460  67.3412550  50.2286930  33.1072220  66.9614280
  51.5055870  33.8790270  67.2178240  53.0108180  49.6932500  64.3150120
  52.5511150  50.4448310  63.9408140  52.3820640  48.9738970  64.2564920
  39.8358800  45.7875740  66.7048840  39.1092860  45.1681030  66.6374790
  39.8967950  46.1816350  65.8346920  43.4403900  48.0020740  63.4898250
  43.9568920  47.3908100  62.9646510  44.0901280  48.5049520  63.9809260
  46.1799400  48.8929230  64.3167230  46.4677210  48.6383530  63.4400240
  46.6922620  48.3406590  64.9072800  47.3976410  32.6319430  64.8963740
  46.6148200  33.1064930  65.1760500  47.1039340  31.7274260  64.7876920
  51.9497480  33.3342530  62.9412830  52.3905570  33.2787630  62.0934430
  51.6805070  34.2500540  63.0123010  53.8136050  32.9657770  60.9521650
  53.7524450  32.0218990  60.8052670  54.5928080  33.0737860  61.4975110
  38.1188800  49.1050130  59.9145600  37.9510840  48.4720810  60.6127490
  37.2523310  49.3109530  59.5639790  38.7416820  32.9366910  57.4177460
  39.4996180  33.0495790  56.8441490  38.2793990  33.7736110  57.3720890
  45.2830630  35.0506180  60.4079770  44.4705140  34.6763070  60.0675650
  45.7872270  34.2951260  60.7100960  49.7855610  31.7148630  61.6462840
  50.3884980  32.2868840  62.1211360  49.0448600  32.2788070  61.4236740
  52.9290210  32.1170190  56.9203120  53.1240840  33.0153640  57.1870550
  52.1420080  31.8857270  57.4136070  39.7251500  47.7983360  57.3595740
  39.1999120  48.1791390  56.6557700  39.6496080  48.4234130  58.0805450
  41.1141970  33.4630960  55.9579430  41.6434730  32.6760760  55.8287380
  41.7470290  34.1422150  56.1914960  43.3079810  33.2006100  59.0124820
  42.6782550  32.4993410  59.1794950  42.7684950  33.9610230  58.7957980
  54.4816820  49.3570900  58.6809680  54.6569010  48.6708640  58.0370600
  53.7838390  49.8817950  58.2886350  42.3244470  49.7465740  56.2344990
  43.0563290  49.4625020  55.6868880  42.5838140  49.5079020  57.1244370
  41.4859260  45.8630470  56.2391320  40.8568140  46.3315570  56.7877150
  41.6007090  45.0179690  56.6737510  41.0694110  46.0375050  45.3435570
  41.3722150  45.1472790  45.1645790  41.8137700  46.5945270  45.1157820
  37.4617810  39.5642500  44.8159640  38.0333920  38.7964700  44.8163280
  37.4619350  39.8631260  43.9066250  38.7042680  34.9726860  46.6028570
  38.5245520  34.0752610  46.8831330  38.3022760  35.5198730  47.2775520
  39.3229350  37.4687360  45.2110910  40.0039460  37.7325730  45.8298310
  39.0077400  36.6288230  45.5448920  55.6164850  36.6859910  48.0012850
  54.9117020  37.0741620  47.4827960  55.8822770  37.3810200  48.6033780
  41.7990020  33.1553280  48.5646920  41.8008460  33.6725670  47.7592820
  40.9694330  32.6783460  48.5416850  43.0492870  42.7948460  46.7420420
  42.7162250  43.4217380  47.3841490  43.2259550  43.3210340  45.9622090
  51.5626780  36.6093540  44.2096760  50.8582350  36.8978430  44.7899870
  51.9238940  37.4193650  43.8496320  41.4805350  34.8663240  46.5717370
  41.8222160  35.7105290  46.2771240  40.5421160  35.0146980  46.6882710
  42.2611970  44.7629260  48.5569600  42.8785970  45.4380340  48.2754050
  41.4005090  45.1717240  48.4657100  53.1789560  46.2268670  46.4724240
  52.4953080  46.8967780  46.4640910  53.7183850  46.4249320  45.7069100
  54.6313700  36.0548330  44.6005970  53.6838610  36.0887310  44.7321400
  54.9563690  36.8687280  44.9855330  50.1133740  42.9742640  46.5152030
  50.5302530  42.7602750  45.6805490  50.8373560  43.2315430  47.0860650
  54.0595840  41.3729860  46.6068270  53.2314470  41.4422950  46.1318400
  54.6546320  41.9584170  46.1384100  51.5811290  41.9814640  40.1357330
  50.9623710  41.6434190  39.4883630  51.5635740  41.3374400  40.8436520
  51.0237850  38.1599180  47.5523140  50.6109030  38.9852890  47.8063130
  50.2913800  37.5744220  47.3599500  41.8699260  37.7202290  46.1940850
  42.4213850  37.8297630  45.4194100  42.3842770  38.0939890  46.9096080
  51.7137950  48.2058510  48.2404120  51.2368510  49.0130700  48.0476730
  51.0299740  47.5536840  48.3930330  42.7170770  44.3708330  51.2288820
  41.8199300  44.5948300  51.4762220  42.7423640  44.4943270  50.2800220
  41.5441990  41.2421650  49.8046190  41.4049760  42.1144450  50.1733590
  40.6623350  40.8994460  49.6594130  43.3422340  47.1843350  52.0131340
  43.3137770  47.5886300  51.1459770  43.1787310  46.2553710  51.8502940
  55.2937160  47.9670450  53.3095510  55.7696880  48.4453340  53.9884590
  55.9144320  47.8987940  52.5841010  37.4960640  43.0119200  45.7217100
  37.5741060  43.1467970  44.7772820  38.1102320  42.3035090  45.9145220
  54.6970410  45.1583300  50.4695520  54.8233470  44.9195180  49.5512700
  54.7391790  44.3267840  50.9417600  48.5587150  48.8611300  49.0390330
  49.0731820  48.7719310  49.8412760  47.7156230  49.2071000  49.3318240
  54.5494420  37.2115760  51.4345260  53.9338690  37.7195430  50.9060720
  54.2290840  36.3114090  51.3771200  37.5520160  44.0533370  48.2611560
  37.7151200  43.5838730  47.4430930  38.0172610  43.5456930  48.9260400
  46.6108740  36.0507650  48.9007450  46.1488110  36.2590670  49.7127390
  46.2086850  35.2367000  48.5978120  51.6113250  37.2716600  50.0304110
  50.7606840  36.9722350  50.3513180  51.4515040  37.5158610  49.1187930
  48.7062960  38.7718350  52.1302900  49.0316370  37.9382100  51.7905130
  49.4943290  39.2946870  52.2781230  44.5552360  39.2058280  51.6913650
  44.4595960  38.2653010  51.5414050  45.3984340  39.4273350  51.2961720
  39.6862900  35.6171950  49.8447430  39.2926290  36.4647160  50.0520210
  38.9981300  34.9798320  50.0356070  46.2607950  35.7006920  52.9144170
  45.5706270  35.5079120  53.5490260  47.0040250  35.9841560  53.4468470
  48.5370920  39.5405360  45.7498090  47.8052040  40.0492170  46.0988190
  48.1395260  38.7235340  45.4486870  48.9996830  34.9939040  45.1621030
  49.0169570  35.4447690  46.0062880  48.7512410  34.0944680  45.3754470
  52.4267580  32.4071220  51.0007410  52.7513350  31.6760880  51.5265390
  52.4624090  32.0884860  50.0988400  39.1259140  43.4284800  50.4207370
  38.7413930  42.7878470  51.0190330  39.4371330  44.1320920  50.9902100
  45.2756280  40.2761340  45.9015990  45.6426410  39.8019910  46.6477330
  45.0861340  41.1502910  46.2424330  43.0655650  39.3169980  48.2200200
  42.7612720  40.1961960  48.4450560  44.0202110  39.3769770  48.2557640
  52.3525420  42.5196330  44.6093440  53.0724540  43.0151620  44.2189550
  52.1507240  41.8414220  43.9647310  47.7344220  42.5905390  50.4962440
  47.6681530  41.6701060  50.2420030  47.1049360  42.6880830  51.2107080
  39.1219380  40.1572720  49.3671560  38.7634320  40.8226570  49.9544900
  38.8273940  39.3256270  49.7384180  42.3232500  40.6156960  52.2511110
  42.0232640  40.7614140  51.3538930  43.0943740  40.0562250  52.1584500
  47.6660950  45.4125960  50.2466240  47.6805490  44.4806920  50.0285150
  46.9586050  45.4985720  50.8856010  52.7998020  39.5965780  36.5164850
  52.7161740  40.0280000  35.6661290  53.5192210  40.0564130  36.9491670
  53.8772160  42.0533300  49.5934820  53.1520350  42.6462080  49.3964210
  54.4047620  42.0456840  48.7948190  53.8285270  46.4508040  39.2446980
  53.1861430  45.7963660  39.5190700  53.4415930  46.8563130  38.4687650
  47.0994850  47.0543530  47.3406740  47.7437070  47.2602910  48.0180160
  47.4624290  46.2931930  46.8877590  48.3726930  45.0575880  46.0584190
  49.0149160  44.3569040  46.1716360  48.8976280  45.8374320  45.8781080
  50.1464550  45.8570780  49.2620250  50.4820790  46.4437470  49.9398170
  49.2264890  45.7263490  49.4918040  37.6967950  33.6465960  50.0443660
  36.9826470  33.8462880  50.6496270  38.1162990  32.8705530  50.4158460
  51.7998900  43.2596440  37.4437490  51.5120600  43.7209130  38.2315370
  52.5951070  42.7994210  37.7121710  37.9840540  47.6346220  51.0310190
  38.0931660  46.6940960  50.8905580  37.3321100  47.9000970  50.3823920
  45.9753130  45.9062110  52.4308310  45.6550000  45.1871350  52.9754000
  45.3011490  46.5817180  52.5044370  49.1906730  36.1388270  47.7945110
  49.5587550  35.3183480  48.1224680  48.3304930  36.1990160  48.2100760
  52.5568760  35.0945210  38.6032670  51.9281920  35.1990880  37.8890900
  52.0620680  35.3141990  39.3926550  46.1508720  38.7927860  48.0183080
  46.6493970  39.2673680  48.6834930  46.2931670  37.8691380  48.2253110
  53.3575580  35.0095820  48.8611470  52.8549180  35.7501220  49.2005280
  54.1732240  35.3979820  48.5448260  51.6497590  40.2529000  42.3072830
  50.7087730  40.2679230  42.4820520  51.9641660  39.4664960  42.7533130
  53.6523170  47.4237850  43.9827090  53.7770590  48.2469020  44.4550900
  54.5188730  47.2128580  43.6351240  40.1298980  48.7015130  52.8429800
  40.9311710  49.0227180  53.2565200  39.6150800  48.3410710  53.5649710
  48.9663610  44.8095000  52.7905210  48.3601770  44.8326600  52.0500960
  48.6617720  44.0778040  53.3272460  50.3963980  48.5375290  51.4014620
  51.3485730  48.4533310  51.3514860  50.2492200  49.2017000  52.0748410
  37.8496790  41.1888590  51.7865850  38.3535810  40.6095870  52.3582080
  37.1104210  41.4728820  52.3242220  44.9034730  42.5959580  51.3201370
  44.1380400  43.1644580  51.2356040  45.0850690  42.3035790  50.4269600
  52.0458080  44.3264910  51.8776390  52.7867550  44.6640670  51.3743850
  51.2830760  44.4956970  51.3246160  39.8819870  39.3318180  52.6815920
  39.9225210  39.0332050  53.5901150  40.7365370  39.7325790  52.5223440
  41.8225680  37.9110280  50.6490410  41.2922140  37.4201230  50.0213750
  42.4913750  38.3394480  50.1148340  50.7203740  42.3779740  50.4131600
  51.1344760  42.5324820  51.2622020  49.7854740  42.5034960  50.5757380
  51.1925910  39.7175900  52.4170750  51.7746680  38.9628220  52.3291230
  51.3687680  40.2483340  51.6402230  42.3097980  34.8772650  50.7287700
  42.2154850  34.2593400  50.0038570  41.7295370  35.6038940  50.5017610
  45.0759420  33.4345890  47.7615090  44.6276720  33.4570150  46.9160640
  44.4424620  33.0364910  48.3585390  45.4818970  42.3300220  48.3827530
  45.9007080  43.1732950  48.2103770  44.5627600  42.4672260  48.1534310
  47.8182870  40.0616400  49.7665370  47.9379080  39.4657540  50.5060210
  48.6776870  40.0986090  49.3466670  50.1570770  40.6153590  48.3427880
  49.6305990  41.1396210  47.7393020  50.5002110  41.2480980  48.9737610
  43.3326390  48.6353230  49.4985260  42.7947480  49.3599290  49.1793960
  43.5860350  48.1583570  48.7082600  44.5851640  36.6037750  51.0241190
  45.1751330  36.2953600  51.7119010  43.7671880  36.1317500  51.1801090
  49.4045070  36.2203560  51.2574210  48.7160590  35.5585100  51.1924200
  50.1251090  35.7741830  51.7022670  46.1888600  49.8704440  49.7571910
  46.1147300  50.7739580  50.0644280  45.2867440  49.5516340  49.7293980
  38.0806100  48.0649620  45.7987160  37.6437090  48.2450420  46.6311310
  38.6483780  48.8224240  45.6568880  53.7168280  47.5666620  50.0864470
  53.1170270  47.6259180  49.3428390  53.8462180  46.6271600  50.2161320
  54.9569730  45.3084440  35.4234180  54.1262690  45.3761090  35.8941410
  55.1341560  46.1988560  35.1201040  54.4126190  42.0531920  37.9268380
  55.1745100  42.6228570  38.0328070  54.4280560  41.4859120  38.6976690
  55.4186160  42.9082020  42.7710310  55.7894990  42.1249340  42.3646280
  56.0588090  43.5971120  42.5927610  52.4019920  44.2918600  48.1840630
  51.5879760  44.7215760  48.4466420  52.8094120  44.9037010  47.5709680
  54.4645360  42.3466290  35.0840900  54.7394200  43.2545170  34.9560120
  54.2756100  42.2828820  36.0202890  54.3610700  40.2835280  40.0770330
  53.9854300  39.5163210  39.6451620  53.6313820  40.6657980  40.5645260
  38.9506460  40.9622420  46.6979380  39.3179500  40.8749820  47.5775400
  38.3817280  40.1988970  46.5986240  53.7510320  39.4306800  49.7109850
  53.5196410  39.2019550  48.8107800  54.0114870  40.3506350  49.6654740
  38.5022460  37.8731510  50.6037800  37.6078510  37.8398270  50.9431510
  39.0420010  38.0718300  51.3689050  52.1898390  34.6563230  52.4889550
  53.0668570  34.6646630  52.8723550  52.2019230  33.9194070  51.8781900
  53.6361660  38.5092770  43.3777570  54.1599140  38.0155420  42.7467740
  54.2221080  38.6443130  44.1225140  53.8151380  38.5932640  46.8997120
  52.8654090  38.5596180  47.0142110  53.9964390  39.5032750  46.6646890
  53.1261630  37.7666120  39.3169980  53.6220750  37.5336990  40.1018860
  52.9277700  36.9277960  38.9007620  39.0062170  32.1479840  44.9521020
  39.6538360  31.5977220  44.5116180  39.4264010  32.4022990  45.7736830
  54.5548790  36.4027070  41.8507660  54.4448070  36.2483110  42.7889930
  55.3156380  35.8748010  41.6083070  52.9014510  32.3421200  48.3090660
  53.5386730  32.9555340  48.6749850  53.0489400  32.3781860  47.3639890
  55.4439060  34.2334990  35.0913800  56.3688370  34.1016170  34.8832090
  55.4214850  34.3127810  36.0450250  55.5177550  35.0045650  37.7170510
  54.7229050  34.9390770  38.2463420  55.7220830  35.9396290  37.7055860
  38.7594170  32.3035510  47.6946340  38.4108990  32.7599330  48.4604520
  38.4281870  31.4092640  47.7768770  40.3658540  45.4755110  51.8599530
  40.3228170  45.1048020  52.7413990  40.4969550  46.4132680  52.0001350
  44.0664570  47.0314700  47.4609250  43.8255930  47.2989260  46.5739770
  45.0067210  47.2020430  47.5160110  46.2718990  33.4947390  51.2165760
  46.2107880  34.0869220  51.9661170  47.2119370  33.3873350  51.0716020
  48.9093550  33.1517450  50.8558050  49.5233960  33.4696740  50.1939130
  49.4543110  32.6666040  51.4753910  55.3268730  49.0509080  48.2619890
  54.8327010  49.4477950  47.5447020  54.7182020  48.4258290  48.6557170
  39.4314810  31.8311710  50.9697110  39.9797800  31.6499760  50.2063220
  39.4970120  31.0405820  51.5053420  40.2046570  48.4217360  48.9797310
  39.6106890  48.2902060  49.7187350  40.1970410  47.5855500  48.5139410
  49.6501590  31.7149590  47.1827340  48.7761430  32.0484700  46.9800270
  49.5412340  31.2422770  48.0079210  50.5573570  33.9220460  48.5669060
  50.2286930  33.1072220  48.1870790  51.5055870  33.8790270  48.4434750
  53.0108180  49.6932500  45.5406630  52.5511150  50.4448310  45.1664650
  52.3820640  48.9738970  45.4821430  39.8358800  45.7875740  47.9305350
  39.1092860  45.1681030  47.8631300  39.8967950  46.1816350  47.0603430
  47.3976410  32.6319430  46.1220250  46.6148200  33.1064930  46.4017010
  47.1039340  31.7274260  46.0133430  46.2471760  49.8145330  52.9091940
  47.1739070  49.5789600  52.9527900  46.2322190  50.6417330  52.4277970
  54.4816820  49.3570900  39.9066190  54.6569010  48.6708640  39.2627110
  53.7838390  49.8817950  39.5142860  43.4335370  32.4790080  52.6733820
  43.1519640  32.9823680  51.9094640  43.8155070  31.6811830  52.3075950
  50.0350830  31.8943660  53.2514290  49.9216280  32.2138270  54.1465810
  50.8520570  32.2956170  52.9551570  52.8149320  49.0415190  52.7332980
  53.6074640  48.5464420  52.5258940  53.1082470  49.7205330  53.3408590
  48.9408980  39.9136130  23.6149030  48.8603030  38.9990740  23.3440740
  48.5273400  40.4103200  22.9088740  51.0934450  46.0975340  24.2757430
  50.6315980  45.3262580  24.6044600  51.9060000  46.1241410  24.7809880
  39.4984800  36.9636850  20.1576450  38.6101500  37.3052820  20.0556330
  39.7825990  36.7637170  19.2657280  41.6746190  35.5468350  21.1914830
  41.7812940  36.4472080  21.4983590  40.7638550  35.4986320  20.9009480
  51.3265300  34.6693160  22.6625730  52.1474920  34.1789730  22.7051210
  51.3599380  35.2590820  23.4157570  55.6164850  36.6859910  29.2269360
  54.9117020  37.0741620  28.7084470  55.8822770  37.3810200  29.8290290
  48.1861110  43.2672590  21.2893330  47.5678380  43.7322040  20.7256050
  48.6984360  43.9600070  21.7062840  51.5626780  36.6093540  25.4353270
  50.8582350  36.8978430  26.0156380  51.9238940  37.4193650  25.0752830
  37.5544310  43.9529120  18.6632960  37.1772290  44.4416220  17.9317860
  37.8117380  44.6254400  19.2939490  53.1789560  46.2268670  27.6980750
  52.4953080  46.8967780  27.6897420  53.7183850  46.4249320  26.9325610
  54.6313700  36.0548330  25.8262480  53.6838610  36.0887310  25.9577910
  54.9563690  36.8687280  26.2111840  52.0093720  44.7929020  21.5016100
  51.8990050  43.8503350  21.6265520  52.0061970  45.1544660  22.3878860
  50.1133740  42.9742640  27.7408540  50.5302530  42.7602750  26.9062000
  50.8373560  43.2315430  28.3117160  47.5514000  40.4194340  20.8578590
  46.6243280  40.3531720  21.0867060  47.7038820  41.3574470  20.7433830
  47.5383080  36.6911340  17.8545750  46.5986750  36.8525300  17.9398210
  47.8566340  37.4097020  17.3081740  54.0595840  41.3729860  27.8324780
  53.2314470  41.4422950  27.3574910  54.6546320  41.9584170  27.3640610
  51.5811290  41.9814640  21.3613840  50.9623710  41.6434190  20.7140140
  51.5635740  41.3374400  22.0693030  51.0237850  38.1599180  28.7779650
  50.6109030  38.9852890  29.0319640  50.2913800  37.5744220  28.5856010
  49.7575990  41.2201450  18.3686590  50.1969270  40.3823880  18.2224410
  50.4704410  41.8530850  18.4550730  47.8671370  46.1597520  22.3367830
  48.3067280  46.9021850  21.9223220  47.8058260  46.4024090  23.2606790
  53.3393130  32.4744260  16.6827630  53.0265790  32.5671090  17.5826700
  54.1005600  33.0525290  16.6325060  39.8575270  39.8404060  21.1404970
  39.7372870  40.5666150  20.5286240  39.5476160  39.0706970  20.6632880
  55.2937160  47.9670450  34.5352020  55.7696880  48.4453340  35.2141100
  55.9144320  47.8987940  33.8097520  54.6970410  45.1583300  31.6952030
  54.8233470  44.9195180  30.7769210  54.7391790  44.3267840  32.1674110
  50.5341550  49.1466640  19.6930840  50.3742690  48.8569580  20.5912670
  50.3688260  48.3706770  19.1576070  43.0129930  48.9265170  21.4702460
  42.8372410  48.0100710  21.2570260  42.1585670  49.2852460  21.7100260
  50.2367680  46.6554200  18.2528840  49.5432840  46.6531490  17.5931120
  50.9790540  46.2313520  17.8223010  49.8017610  48.2816910  22.3277330
  50.2574560  47.5006290  22.6415950  50.1410130  48.9923730  22.8718510
  54.5494420  37.2115760  32.6601770  53.9338690  37.7195430  32.1317230
  54.2290840  36.3114090  32.6027710  51.6113250  37.2716600  31.2560620
  50.7606840  36.9722350  31.5769690  51.4515040  37.5158610  30.3444440
  45.4397750  32.8049830  19.4034470  44.8151930  32.8009700  20.1287780
  45.3527870  31.9380790  19.0070440  49.3450910  38.3136070  20.8500540
  48.7459800  39.0371870  20.6664160  49.8930520  38.2512850  20.0676990
  47.9515780  36.9499610  22.8803820  48.3445350  37.2671810  22.0672510
  48.3132630  36.0711490  22.9948340  37.1750180  37.4820530  16.3136740
  37.0924850  38.4251290  16.4551730  36.8233240  37.3395440  15.4349090
  45.0368460  37.2171640  18.3713850  45.1581280  37.1758120  19.3199670
  44.6516970  38.0795790  18.2160580  44.0489960  39.5272780  17.7697150
  43.4806860  39.0791030  17.1433060  44.7578960  39.8865560  17.2362300
  41.5937440  43.5230970  20.0423560  40.8199700  42.9828590  19.8822280
  42.3232070  43.0037580  19.7041320  52.3525420  42.5196330  25.8349950
  53.0724540  43.0151620  25.4446060  52.1507240  41.8414220  25.1903820
  47.8135360  33.9134290  19.9779340  46.9999970  33.4147460  19.9024650
  47.6197310  34.7532540  19.5615690  50.5283750  38.2853940  18.2741500
  51.4163370  38.5971170  18.0992840  50.4988840  37.4126190  17.8822080
  46.5244340  44.4577630  18.9529670  46.8660040  45.2019860  18.4572990
  45.6957050  44.7708750  19.3154500  52.7998020  39.5965780  17.7421360
  52.7161740  40.0280000  16.8917800  53.5192210  40.0564130  18.1748180
  53.8772160  42.0533300  30.8191330  53.1520350  42.6462080  30.6220720
  54.4047620  42.0456840  30.0204700  53.8285270  46.4508040  20.4703490
  53.1861430  45.7963660  20.7447210  53.4415930  46.8563130  19.6944160
  49.4071750  43.7793470  24.3175180  49.7595570  43.1821600  23.6576550
  48.5234080  43.4537700  24.4883430  45.4935030  44.5391160  21.7245590
  46.1806160  45.0860370  22.1053180  44.7067450  45.0831890  21.7595200
  37.6327430  40.1563980  17.2162670  38.5022280  40.4388780  17.4998590
  37.1417750  40.9699850  17.1011480  44.7962240  41.5437190  21.3370950
  45.2525020  42.3542440  21.5631140  44.4450450  41.2260330  22.1689440
  40.6974020  31.8874840  21.8093470  40.5688650  31.8792740  22.7578390
  39.8736040  32.2257930  21.4584480  52.2182650  45.3424500  17.0079840
  51.9920230  44.6254940  17.6004480  51.8278850  45.0936940  16.1701590
  37.9998680  49.3691360  17.7824300  38.3596320  49.9680700  17.1281570
  37.8591020  49.9151250  18.5559330  51.7998900  43.2596440  18.6694000
  51.5120600  43.7209130  19.4571880  52.5951070  42.7994210  18.9378220
  44.0167300  46.7522560  18.5997970  44.0077400  47.4852250  17.9842480
  43.0965660  46.5054140  18.6924930  39.6173940  41.9737450  19.3444730
  39.0101890  42.7136350  19.3540030  40.0923290  42.0636810  18.5182930
  52.5568760  35.0945210  19.8289180  51.9281920  35.1990880  19.1147410
  52.0620680  35.3141990  20.6183060  47.0026900  46.8150800  17.2623160
  47.1038880  46.6114790  16.3325140  46.1028640  46.5609080  17.4670940
  44.5252790  37.3731160  21.2447060  43.8168940  37.8417500  21.6860670
  44.8097270  36.7153170  21.8792250  48.5568220  34.0981820  22.6842850
  48.4336000  34.1167950  21.7352360  49.5052780  34.1460760  22.8041250
  45.6445010  49.3337120  21.9570830  45.8986510  49.2958510  21.0350200
  44.6957490  49.2070450  21.9499080  42.7287810  35.6816240  18.6197770
  43.5778340  36.1186390  18.5537960  42.3619080  35.9936500  19.4469830
  53.3575580  35.0095820  30.0867980  52.8549180  35.7501220  30.4261790
  54.1732240  35.3979820  29.7704770  51.6497590  40.2529000  23.5329340
  50.7087730  40.2679230  23.7077030  51.9641660  39.4664960  23.9789640
  41.6279230  41.9348600  17.0933300  42.3942500  41.8229960  17.6558730
  41.7053920  41.2386570  16.4410070  40.3225990  39.3673670  17.7766190
  40.4029580  38.4201180  17.8883590  41.2145740  39.6980550  17.8826850
  53.6523170  47.4237850  25.2083600  53.7770590  48.2469020  25.6807410
  54.5188730  47.2128580  24.8607750  38.0086180  45.5842630  20.7542240
  37.0825960  45.8263770  20.7447650  38.4742610  46.4116890  20.6326990
  44.2343010  48.6899370  16.7026300  45.0271620  48.9788200  16.2508090
  43.7147360  48.2591540  16.0238780  53.2873180  47.9169500  18.1263040
  53.0014690  47.5034640  17.3117220  53.0892730  48.8457210  18.0063560
  44.7520410  43.9102780  16.5668650  44.6471050  43.2955130  17.2930030
  44.5844630  43.3868670  15.7831660  47.9923140  42.9722810  17.1710640
  47.4433240  43.4192110  17.8153380  48.6142400  42.4672060  17.6948310
  52.0458080  44.3264910  33.1032900  52.7867550  44.6640670  32.6000360
  51.2830760  44.4956970  32.5502670  43.6598260  41.9313730  19.0675940
  44.0814680  41.7653600  19.9107330  43.7849100  41.1213960  18.5731080
  46.1725900  40.9551340  16.3153040  46.6931560  40.2400360  15.9494190
  46.8194300  41.5937210  16.6153550  50.7203740  42.3779740  31.6388110
  51.1344760  42.5324820  32.4878530  49.7854740  42.5034960  31.8013890
  51.1925910  39.7175900  33.6427260  51.7746680  38.9628220  33.5547740
  51.3687680  40.2483340  32.8658740  42.5557160  38.0046960  16.0134100
  42.3546220  37.1414320  16.3747440  42.3849210  37.9180320  15.0755700
  50.0345470  32.8155190  18.5420980  50.3147760  31.9723090  18.8980400
  49.2611200  33.0478300  19.0559730  41.3539960  35.1047580  16.0011980
  41.6565860  35.1115010  15.0931130  42.0934550  34.7545440  16.4979640
  44.5724890  34.0482200  16.9868180  44.2246890  33.3706190  16.4070630
  44.7737660  33.5871710  17.8011570  46.7373930  49.0362950  18.6054780
  47.6324720  49.3747920  18.6273540  46.7691560  48.3142360  17.9779060
  40.3770090  44.4090000  16.8341780  40.8144960  44.9519670  17.4899360
  40.8617820  43.5836950  16.8438120  42.1877810  45.5288040  21.9464010
  41.8873350  45.4053010  22.8467920  42.0815300  44.6696630  21.5379740
  53.7168280  47.5666620  31.3120980  53.1170270  47.6259180  30.5684900
  53.8462180  46.6271600  31.4417830  54.9569730  45.3084440  16.6490690
  54.1262690  45.3761090  17.1197920  55.1341560  46.1988560  16.3457550
  54.4126190  42.0531920  19.1524890  55.1745100  42.6228570  19.2584580
  54.4280560  41.4859120  19.9233200  55.4186160  42.9082020  23.9966820
  55.7894990  42.1249340  23.5902790  56.0588090  43.5971120  23.8184120
  52.4019920  44.2918600  29.4097140  51.5879760  44.7215760  29.6722930
  52.8094120  44.9037010  28.7966190  54.4645360  42.3466290  16.3097410
  54.7394200  43.2545170  16.1816630  54.2756100  42.2828820  17.2459400
  50.8620970  35.3711140  17.6051040  51.2805850  35.1842120  16.7647700
  50.5557030  34.5190190  17.9153970  54.3610700  40.2835280  21.3026840
  53.9854300  39.5163210  20.8708130  53.6313820  40.6657980  21.7901770
  53.7510320  39.4306800  30.9366360  53.5196410  39.2019550  30.0364310
  54.0114870  40.3506350  30.8911250  52.1898390  34.6563230  33.7146060
  53.0668570  34.6646630  34.0980060  52.2019230  33.9194070  33.1038410
  37.1268610  37.7868780  19.3257880  36.2232690  38.0498980  19.1509540
  37.6109230  38.0579950  18.5457840  53.6361660  38.5092770  24.6034080
  54.1599140  38.0155420  23.9724250  54.2221080  38.6443130  25.3481650
  53.8151380  38.5932640  28.1253630  52.8654090  38.5596180  28.2398620
  53.9964390  39.5032750  27.8903400  39.6695820  36.8434320  17.2352260
  40.3787520  36.4217540  16.7499540  38.9535760  36.9109550  16.6035610
  39.3169980  32.8973650  16.2754910  40.0398110  33.4382590  16.5936130
  39.5894500  32.6237070  15.3996450  53.1261630  37.7666120  20.5426490
  53.6220750  37.5336990  21.3275370  52.9277700  36.9277960  20.1264130
  54.5548790  36.4027070  23.0764170  54.4448070  36.2483110  24.0146440
  55.3156380  35.8748010  22.8339580  52.9014510  32.3421200  29.5347170
  53.5386730  32.9555340  29.9006360  53.0489400  32.3781860  28.5896400
  55.4439060  34.2334990  16.3170310  56.3688370  34.1016170  16.1088600
  55.4214850  34.3127810  17.2706760  55.5177550  35.0045650  18.9427020
  54.7229050  34.9390770  19.4719930  55.7220830  35.9396290  18.9312370
  52.4595970  49.0437200  22.9365410  53.0555040  48.7221770  22.2599830
  52.7174120  48.5709020  23.7278680  55.3268730  49.0509080  29.4876400
  54.8327010  49.4477950  28.7703530  54.7182020  48.4258290  29.8813680
  53.0108180  49.6932500  26.7663140  52.5511150  50.4448310  26.3921160
  52.3820640  48.9738970  26.7077940  51.9497480  33.3342530  25.3925850
  52.3905570  33.2787630  24.5447450  51.6805070  34.2500540  25.4636030
  53.8136050  32.9657770  23.4034670  53.7524450  32.0218990  23.2565690
  54.5928080  33.0737860  23.9488130  38.1188800  49.1050130  22.3658620
  37.9510840  48.4720810  23.0640510  37.2523310  49.3109530  22.0152810
  38.7416820  32.9366910  19.8690480  39.4996180  33.0495790  19.2954510
  38.2793990  33.7736110  19.8233910  45.2830630  35.0506180  22.8592790
  44.4705140  34.6763070  22.5188670  45.7872270  34.2951260  23.1613980
  52.9290210  32.1170190  19.3716140  53.1240840  33.0153640  19.6383570
  52.1420080  31.8857270  19.8649090  39.7251500  47.7983360  19.8108760
  39.1999120  48.1791390  19.1070720  39.6496080  48.4234130  20.5318470
  41.1141970  33.4630960  18.4092450  41.6434730  32.6760760  18.2800400
  41.7470290  34.1422150  18.6427980  43.3079810  33.2006100  21.4637840
  42.6782550  32.4993410  21.6307970  42.7684950  33.9610230  21.2471000
  54.4816820  49.3570900  21.1322700  54.6569010  48.6708640  20.4883620
  53.7838390  49.8817950  20.7399370  42.3244470  49.7465740  18.6858010
  43.0563290  49.4625020  18.1381900  42.5838140  49.5079020  19.5757390
  41.4859260  45.8630470  18.6904340  40.8568140  46.3315570  19.2390170
  41.6007090  45.0179690  19.1250530  48.9408980  39.9136130   4.8405540
  48.8603030  38.9990740   4.5697250  48.5273400  40.4103200   4.1345250
  47.0727020  41.6915150   6.7214810  46.2969120  41.2115590   7.0113380
  47.7239950  41.0120800   6.5470970  41.0892850  42.0034960   7.5990570
  40.2577730  41.7483670   7.9987080  41.6973830  42.0745730   8.3348490
  51.0934450  46.0975340   5.5013940  50.6315980  45.3262580   5.8301110
  51.9060000  46.1241410   6.0066390  41.0694110  46.0375050   7.7948590
  41.3722150  45.1472790   7.6158810  41.8137700  46.5945270   7.5670840
  37.4617810  39.5642500   7.2672660  38.0333920  38.7964700   7.2676300
  37.4619350  39.8631260   6.3579270  47.3197760  48.3833350   5.1217930
  46.7009200  48.8390850   4.5512370  48.1749540  48.5384810   4.7207630
  46.5136010  44.3672340   6.7284970  46.4444290  43.4262280   6.5674100
  47.2755870  44.4573750   7.3007540  38.7042680  34.9726860   9.0541590
  38.5245520  34.0752610   9.3344350  38.3022760  35.5198730   9.7288540
  47.5441180  37.1742720   6.9553900  47.9206000  36.3014600   6.8427570
  47.4460690  37.5101420   6.0644340  41.6746190  35.5468350   2.4171340
  41.7812940  36.4472080   2.7240100  40.7638550  35.4986320   2.1265990
  51.3265300  34.6693160   3.8882240  52.1474920  34.1789730   3.9307720
  51.3599380  35.2590820   4.6414080  39.3229350  37.4687360   7.6623930
  40.0039460  37.7325730   8.2811330  39.0077400  36.6288230   7.9961940
  43.5153920  38.5154720   6.7496520  44.0232140  39.0135690   7.3901540
  44.0467160  37.7389920   6.5735880  55.6164850  36.6859910  10.4525870
  54.9117020  37.0741620   9.9340980  55.8822770  37.3810200  11.0546800
  41.7990020  33.1553280  11.0159940  41.8008460  33.6725670  10.2105840
  40.9694330  32.6783460  10.9929870  48.1861110  43.2672590   2.5149840
  47.5678380  43.7322040   1.9512560  48.6984360  43.9600070   2.9319350
  43.0492870  42.7948460   9.1933440  42.7162250  43.4217380   9.8354510
  43.2259550  43.3210340   8.4135110  51.5626780  36.6093540   6.6609780
  50.8582350  36.8978430   7.2412890  51.9238940  37.4193650   6.3009340
  41.4805350  34.8663240   9.0230390  41.8222160  35.7105290   8.7284260
  40.5421160  35.0146980   9.1395730  42.2611970  44.7629260  11.0082620
  42.8785970  45.4380340  10.7267070  41.4005090  45.1717240  10.9170120
  53.1789560  46.2268670   8.9237260  52.4953080  46.8967780   8.9153930
  53.7183850  46.4249320   8.1582120  54.6313700  36.0548330   7.0518990
  53.6838610  36.0887310   7.1834420  54.9563690  36.8687280   7.4368350
  45.1633240  32.3545510   5.3474980  45.4708220  31.7992400   4.6310480
  44.2333940  32.4889970   5.1647970  50.7148300  48.0712800   7.6382440
  50.7275460  47.6675090   6.7704700  50.1623520  48.8460090   7.5343870
  52.0093720  44.7929020   2.7272610  51.8990050  43.8503350   2.8522030
  52.0061970  45.1544660   3.6135370  50.1133740  42.9742640   8.9665050
  50.5302530  42.7602750   8.1318510  50.8373560  43.2315430   9.5373670
  47.5514000  40.4194340   2.0835100  46.6243280  40.3531720   2.3123570
  47.7038820  41.3574470   1.9690340  54.0595840  41.3729860   9.0581290
  53.2314470  41.4422950   8.5831420  54.6546320  41.9584170   8.5897120
  51.5811290  41.9814640   2.5870350  50.9623710  41.6434190   1.9396650
  51.5635740  41.3374400   3.2949540  51.0237850  38.1599180  10.0036160
  50.6109030  38.9852890  10.2576150  50.2913800  37.5744220   9.8112520
  43.1570640  40.9459080   4.8654830  42.7527640  40.2336330   4.3700730
  43.2433760  40.6012320   5.7542870  43.6252340  44.6326640   7.0294040
  43.3280630  44.0272110   6.3501820  44.5752160  44.6703950   6.9183400
  41.8699260  37.7202290   8.6453870  42.4213850  37.8297630   7.8707120
  42.3842770  38.0939890   9.3609100  51.7137950  48.2058510  10.6917140
  51.2368510  49.0130700  10.4989750  51.0299740  47.5536840  10.8443350
  42.7170770  44.3708330  13.6801840  41.8199300  44.5948300  13.9275240
  42.7423640  44.4943270  12.7313240  41.5441990  41.2421650  12.2559210
  41.4049760  42.1144450  12.6246610  40.6623350  40.8994460  12.1107150
  47.8671370  46.1597520   3.5624340  48.3067280  46.9021850   3.1479730
  47.8058260  46.4024090   4.4863300  43.3422340  47.1843350  14.4644360
  43.3137770  47.5886300  13.5972790  43.1787310  46.2553710  14.3015960
  39.8575270  39.8404060   2.3661480  39.7372870  40.5666150   1.7542750
  39.5476160  39.0706970   1.8889390  55.2937160  47.9670450  15.7608530
  55.7696880  48.4453340  16.4397610  55.9144320  47.8987940  15.0354030
  37.4960640  43.0119200   8.1730120  37.5741060  43.1467970   7.2285840
  38.1102320  42.3035090   8.3658240  38.7408270  44.7119390   4.5836300
  38.3336350  44.8533980   3.7289900  39.6321280  44.4279550   4.3807510
  54.6970410  45.1583300  12.9208540  54.8233470  44.9195180  12.0025720
  54.7391790  44.3267840  13.3930620  48.5587150  48.8611300  11.4903350
  49.0731820  48.7719310  12.2925780  47.7156230  49.2071000  11.7831260
  43.0129930  48.9265170   2.6958970  42.8372410  48.0100710   2.4826770
  42.1585670  49.2852460   2.9356770  49.8017610  48.2816910   3.5533840
  50.2574560  47.5006290   3.8672460  50.1410130  48.9923730   4.0975020
  54.5494420  37.2115760  13.8858280  53.9338690  37.7195430  13.3573740
  54.2290840  36.3114090  13.8284220  37.5520160  44.0533370  10.7124580
  37.7151200  43.5838730   9.8943950  38.0172610  43.5456930  11.3773420
  42.3238930  33.1839130   5.7485150  41.8807080  33.9648670   5.4169670
  42.8823920  33.5069020   6.4556090  46.6108740  36.0507650  11.3520470
  46.1488110  36.2590670  12.1640410  46.2086850  35.2367000  11.0491140
  51.6113250  37.2716600  12.4817130  50.7606840  36.9722350  12.8026200
  51.4515040  37.5158610  11.5700950  48.7062960  38.7718350  14.5815920
  49.0316370  37.9382100  14.2418150  49.4943290  39.2946870  14.7294250
  44.3614830  33.7286460   7.6074750  44.6587160  34.6349290   7.5266770
  44.9100390  33.2405240   6.9934320  42.1153150  38.3072700   3.4766400
  41.8894070  38.0909870   4.3813020  41.3345680  38.7401160   3.1312370
  44.5552360  39.2058280  14.1426670  44.4595960  38.2653010  13.9927070
  45.3984340  39.4273350  13.7474740  47.9515780  36.9499610   4.1060330
  48.3445350  37.2671810   3.2929020  48.3132630  36.0711490   4.2204850
  39.6862900  35.6171950  12.2960450  39.2926290  36.4647160  12.5033230
  38.9981300  34.9798320  12.4869090  46.2607950  35.7006920  15.3657190
  45.5706270  35.5079120  16.0003280  47.0040250  35.9841560  15.8981490
  36.9879950  33.5400410   6.3290530  36.6993000  34.1103270   7.0415510
  37.7325710  33.0604860   6.6921760  48.5370920  39.5405360   8.2011110
  47.8052040  40.0492170   8.5501210  48.1395260  38.7235340   7.8999890
  44.9748310  36.2159560   6.6063600  44.9784370  35.7749510   5.7568140
  45.8699430  36.5376890   6.7135420  40.8250690  36.0986050   5.5657810
  40.4850740  36.5761280   6.3224860  40.0628010  35.6451170   5.2058910
  48.9996830  34.9939040   7.6134050  49.0169570  35.4447690   8.4575900
  48.7512410  34.0944680   7.8267490  52.4267580  32.4071220  13.4520430
  52.7513350  31.6760880  13.9778410  52.4624090  32.0884860  12.5501420
  39.1259140  43.4284800  12.8720390  38.7413930  42.7878470  13.4703350
  39.4371330  44.1320920  13.4415120  45.2756280  40.2761340   8.3529010
  45.6426410  39.8019910   9.0990350  45.0861340  41.1502910   8.6937350
  38.1396770  35.0205030   4.4822480  37.8543690  34.6560700   5.3201100
  38.0775630  34.2885490   3.8685620  43.0655650  39.3169980  10.6713220
  42.7612720  40.1961960  10.8963580  44.0202110  39.3769770  10.7070660
  52.3525420  42.5196330   7.0606460  53.0724540  43.0151620   6.6702570
  52.1507240  41.8414220   6.4160330  47.7344220  42.5905390  12.9475460
  47.6681530  41.6701060  12.6933050  47.1049360  42.6880830  13.6620100
  41.6374840  43.1911350   4.9058880  42.1553510  42.3879610   4.8515770
  41.1858860  43.1290490   5.7475710  39.1219380  40.1572720  11.8184580
  38.7634320  40.8226570  12.4057920  38.8273940  39.3256270  12.1897200
  42.3232500  40.6156960  14.7024130  42.0232640  40.7614140  13.8051950
  43.0943740  40.0562250  14.6097520  47.6660950  45.4125960  12.6979260
  47.6805490  44.4806920  12.4798170  46.9586050  45.4985720  13.3369030
  53.8772160  42.0533300  12.0447840  53.1520350  42.6462080  11.8477230
  54.4047620  42.0456840  11.2461210  49.4071750  43.7793470   5.5431690
  49.7595570  43.1821600   4.8833060  48.5234080  43.4537700   5.7139940
  45.4935030  44.5391160   2.9502100  46.1806160  45.0860370   3.3309690
  44.7067450  45.0831890   2.9851710  44.7962240  41.5437190   2.5627460
  45.2525020  42.3542440   2.7887650  44.4450450  41.2260330   3.3945950
  47.0994850  47.0543530   9.7919760  47.7437070  47.2602910  10.4693180
  47.4624290  46.2931930   9.3390610  40.6974020  31.8874840   3.0349980
  40.5688650  31.8792740   3.9834900  39.8736040  32.2257930   2.6840990
  48.3726930  45.0575880   8.5097210  49.0149160  44.3569040   8.6229380
  48.8976280  45.8374320   8.3294100  50.1464550  45.8570780  11.7133270
  50.4820790  46.4437470  12.3911190  49.2264890  45.7263490  11.9431060
  37.6967950  33.6465960  12.4956680  36.9826470  33.8462880  13.1009290
  38.1162990  32.8705530  12.8671480  37.9840540  47.6346220  13.4823210
  38.0931660  46.6940960  13.3418600  37.3321100  47.9000970  12.8336940
  45.9753130  45.9062110  14.8821330  45.6550000  45.1871350  15.4267020
  45.3011490  46.5817180  14.9557390  49.1906730  36.1388270  10.2458130
  49.5587550  35.3183480  10.5737700  48.3304930  36.1990160  10.6613780
  44.5252790  37.3731160   2.4703570  43.8168940  37.8417500   2.9117180
  44.8097270  36.7153170   3.1048760  46.1508720  38.7927860  10.4696100
  46.6493970  39.2673680  11.1347950  46.2931670  37.8691380  10.6766130
  48.5568220  34.0981820   3.9099360  48.4336000  34.1167950   2.9608870
  49.5052780  34.1460760   4.0297760  45.6445010  49.3337120   3.1827340
  45.8986510  49.2958510   2.2606710  44.6957490  49.2070450   3.1755590
  53.3575580  35.0095820  11.3124490  52.8549180  35.7501220  11.6518300
  54.1732240  35.3979820  10.9961280  51.6497590  40.2529000   4.7585850
  50.7087730  40.2679230   4.9333540  51.9641660  39.4664960   5.2046150
  53.6523170  47.4237850   6.4340110  53.7770590  48.2469020   6.9063920
  54.5188730  47.2128580   6.0864260  41.1240700  49.5169060   6.1057240
  41.8603180  48.9684520   6.3765810  41.5081620  50.3825070   5.9663230
  38.0086180  45.5842630   1.9798750  37.0825960  45.8263770   1.9704160
  38.4742610  46.4116890   1.8583500  40.1298980  48.7015130  15.2942820
  40.9311710  49.0227180  15.7078220  39.6150800  48.3410710  16.0162730
  48.9663610  44.8095000  15.2418230  48.3601770  44.8326600  14.5013980
  48.6617720  44.0778040  15.7785480  50.3963980  48.5375290  13.8527640
  51.3485730  48.4533310  13.8027880  50.2492200  49.2017000  14.5261430
  37.8496790  41.1888590  14.2378870  38.3535810  40.6095870  14.8095100
  37.1104210  41.4728820  14.7755240  44.9034730  42.5959580  13.7714390
  44.1380400  43.1644580  13.6869060  45.0850690  42.3035790  12.8782620
  52.0458080  44.3264910  14.3289410  52.7867550  44.6640670  13.8256870
  51.2830760  44.4956970  13.7759180  39.8819870  39.3318180  15.1328940
  39.9225210  39.0332050  16.0414170  40.7365370  39.7325790  14.9736460
  41.8225680  37.9110280  13.1003430  41.2922140  37.4201230  12.4726770
  42.4913750  38.3394480  12.5661360  50.7203740  42.3779740  12.8644620
  51.1344760  42.5324820  13.7135040  49.7854740  42.5034960  13.0270400
  51.1925910  39.7175900  14.8683770  51.7746680  38.9628220  14.7804250
  51.3687680  40.2483340  14.0915250  42.3097980  34.8772650  13.1800720
  42.2154850  34.2593400  12.4551590  41.7295370  35.6038940  12.9530630
  45.0759420  33.4345890  10.2128110  44.6276720  33.4570150   9.3673660
  44.4424620  33.0364910  10.8098410  45.4818970  42.3300220  10.8340550
  45.9007080  43.1732950  10.6616790  44.5627600  42.4672260  10.6047330
  47.8182870  40.0616400  12.2178390  47.9379080  39.4657540  12.9573230
  48.6776870  40.0986090  11.7979690  50.1570770  40.6153590  10.7940900
  49.6305990  41.1396210  10.1906040  50.5002110  41.2480980  11.4250630
  43.3326390  48.6353230  11.9498280  42.7947480  49.3599290  11.6306980
  43.5860350  48.1583570  11.1595620  44.5851640  36.6037750  13.4754210
  45.1751330  36.2953600  14.1632030  43.7671880  36.1317500  13.6314110
  49.4045070  36.2203560  13.7087230  48.7160590  35.5585100  13.6437220
  50.1251090  35.7741830  14.1535690  46.1888600  49.8704440  12.2084930
  46.1147300  50.7739580  12.5157300  45.2867440  49.5516340  12.1807000
  37.5915890  47.1979030   5.5118550  37.9218900  46.3300090   5.2797190
  38.0206890  47.4037550   6.3423510  42.1877810  45.5288040   3.1720520
  41.8873350  45.4053010   4.0724430  42.0815300  44.6696630   2.7636250
  38.0806100  48.0649620   8.2500180  37.6437090  48.2450420   9.0824330
  38.6483780  48.8224240   8.1081900  53.7168280  47.5666620  12.5377490
  53.1170270  47.6259180  11.7941410  53.8462180  46.6271600  12.6674340
  37.9130530  40.5769850   4.6089060  37.2579370  40.3081490   3.9648760
  38.7508480  40.4674330   4.1591040  55.4186160  42.9082020   5.2223330
  55.7894990  42.1249340   4.8159300  56.0588090  43.5971120   5.0440630
  52.4019920  44.2918600  10.6353650  51.5879760  44.7215760  10.8979440
  52.8094120  44.9037010  10.0222700  54.3610700  40.2835280   2.5283350
  53.9854300  39.5163210   2.0964640  53.6313820  40.6657980   3.0158280
  38.9506460  40.9622420   9.1492400  39.3179500  40.8749820  10.0288420
  38.3817280  40.1988970   9.0499260  53.7510320  39.4306800  12.1622870
  53.5196410  39.2019550  11.2620820  54.0114870  40.3506350  12.1167760
  38.5022460  37.8731510  13.0550820  37.6078510  37.8398270  13.3944530
  39.0420010  38.0718300  13.8202070  52.1898390  34.6563230  14.9402570
  53.0668570  34.6646630  15.3236570  52.2019230  33.9194070  14.3294920
  53.6361660  38.5092770   5.8290590  54.1599140  38.0155420   5.1980760
  54.2221080  38.6443130   6.5738160  53.8151380  38.5932640   9.3510140
  52.8654090  38.5596180   9.4655130  53.9964390  39.5032750   9.1159910
  53.1261630  37.7666120   1.7683000  53.6220750  37.5336990   2.5531880
  52.9277700  36.9277960   1.3520640  39.0062170  32.1479840   7.4034040
  39.6538360  31.5977220   6.9629200  39.4264010  32.4022990   8.2249850
  54.5548790  36.4027070   4.3020680  54.4448070  36.2483110   5.2402950
  55.3156380  35.8748010   4.0596090  52.9014510  32.3421200  10.7603680
  53.5386730  32.9555340  11.1262870  53.0489400  32.3781860   9.8152910
  52.4595970  49.0437200   4.1621920  53.0555040  48.7221770   3.4856340
  52.7174120  48.5709020   4.9535190  38.7594170  32.3035510  10.1459360
  38.4108990  32.7599330  10.9117540  38.4281870  31.4092640  10.2281790
  40.3658540  45.4755110  14.3112550  40.3228170  45.1048020  15.1927010
  40.4969550  46.4132680  14.4514370  44.0664570  47.0314700   9.9122270
  43.8255930  47.2989260   9.0252790  45.0067210  47.2020430   9.9673130
  46.2718990  33.4947390  13.6678780  46.2107880  34.0869220  14.4174190
  47.2119370  33.3873350  13.5229040  48.9093550  33.1517450  13.3071070
  49.5233960  33.4696740  12.6452150  49.4543110  32.6666040  13.9266930
  55.3268730  49.0509080  10.7132910  54.8327010  49.4477950   9.9960040
  54.7182020  48.4258290  11.1070190  39.4314810  31.8311710  13.4210130
  39.9797800  31.6499760  12.6576240  39.4970120  31.0405820  13.9566440
  40.2046570  48.4217360  11.4310330  39.6106890  48.2902060  12.1700370
  40.1970410  47.5855500  10.9652430  49.6501590  31.7149590   9.6340360
  48.7761430  32.0484700   9.4313290  49.5412340  31.2422770  10.4592230
  50.5573570  33.9220460  11.0182080  50.2286930  33.1072220  10.6383810
  51.5055870  33.8790270  10.8947770  53.0108180  49.6932500   7.9919650
  52.5511150  50.4448310   7.6177670  52.3820640  48.9738970   7.9334450
  39.8358800  45.7875740  10.3818370  39.1092860  45.1681030  10.3144320
  39.8967950  46.1816350   9.5116450  43.4403900  48.0020740   7.1667780
  43.9568920  47.3908100   6.6416040  44.0901280  48.5049520   7.6578790
  46.1799400  48.8929230   7.9936760  46.4677210  48.6383530   7.1169770
  46.6922620  48.3406590   8.5842330  47.3976410  32.6319430   8.5733270
  46.6148200  33.1064930   8.8530030  47.1039340  31.7274260   8.4646450
  51.9497480  33.3342530   6.6182360  52.3905570  33.2787630   5.7703960
  51.6805070  34.2500540   6.6892540  53.8136050  32.9657770   4.6291180
  53.7524450  32.0218990   4.4822200  54.5928080  33.0737860   5.1744640
  38.1188800  49.1050130   3.5915130  37.9510840  48.4720810   4.2897020
  37.2523310  49.3109530   3.2409320  45.2830630  35.0506180   4.0849300
  44.4705140  34.6763070   3.7445180  45.7872270  34.2951260   4.3870490
  49.7855610  31.7148630   5.3232370  50.3884980  32.2868840   5.7980890
  49.0448600  32.2788070   5.1006270  43.3079810  33.2006100   2.6894350
  42.6782550  32.4993410   2.8564480  42.7684950  33.9610230   2.4727510
  46.2471760  49.8145330  15.3604960  47.1739070  49.5789600  15.4040920
  46.2322190  50.6417330  14.8790990  54.4816820  49.3570900   2.3579210
  54.6569010  48.6708640   1.7140130  53.7838390  49.8817950   1.9655880
  43.4335370  32.4790080  15.1246840  43.1519640  32.9823680  14.3607660
  43.8155070  31.6811830  14.7588970  50.0350830  31.8943660  15.7027310
  49.9216280  32.2138270  16.5978830  50.8520570  32.2956170  15.4064590
  52.8149320  49.0415190  15.1846000  53.6074640  48.5464420  14.9771960
  53.1082470  49.7205330  15.7921610  48.9408980  21.1392640  61.1636010
  48.8603030  20.2247250  60.8927720  48.5273400  21.6359710  60.4575720
  47.0727020  22.9171660  63.0445280  46.2969120  22.4372100  63.3343850
  47.7239950  22.2377310  62.8701440  41.0892850  23.2291470  63.9221040
  40.2577730  22.9740180  64.3217550  41.6973830  23.3002240  64.6578960
  51.0934450  27.3231850  61.8244410  50.6315980  26.5519090  62.1531580
  51.9060000  27.3497920  62.3296860  41.0694110  27.2631560  64.1179060
  41.3722150  26.3729300  63.9389280  41.8137700  27.8201780  63.8901310
  39.4984800  18.1893360  57.7063430  38.6101500  18.5309330  57.6043310
  39.7825990  17.9893680  56.8144260  37.4617810  20.7899010  63.5903130
  38.0333920  20.0221210  63.5906770  37.4619350  21.0887770  62.6809740
  47.3197760  29.6089860  61.4448400  46.7009200  30.0647360  60.8742840
  48.1749540  29.7641320  61.0438100  46.5136010  25.5928850  63.0515440
  46.4444290  24.6518790  62.8904570  47.2755870  25.6830260  63.6238010
  38.7042680  16.1983370  65.3772060  38.5245520  15.3009120  65.6574820
  38.3022760  16.7455240  66.0519010  47.5441180  18.3999230  63.2784370
  47.9206000  17.5271110  63.1658040  47.4460690  18.7357930  62.3874810
  41.6746190  16.7724860  58.7401810  41.7812940  17.6728590  59.0470570
  40.7638550  16.7242830  58.4496460  51.3265300  15.8949670  60.2112710
  52.1474920  15.4046240  60.2538190  51.3599380  16.4847330  60.9644550
  39.3229350  18.6943870  63.9854400  40.0039460  18.9582240  64.6041800
  39.0077400  17.8544740  64.3192410  43.5153920  19.7411230  63.0726990
  44.0232140  20.2392200  63.7132010  44.0467160  18.9646430  62.8966350
  55.6164850  17.9116420  66.7756340  54.9117020  18.2998130  66.2571450
  55.8822770  18.6066710  67.3777270  41.7990020  14.3809790  67.3390410
  41.8008460  14.8982180  66.5336310  40.9694330  13.9039970  67.3160340
  48.1861110  24.4929100  58.8380310  47.5678380  24.9578550  58.2743030
  48.6984360  25.1856580  59.2549820  43.0492870  24.0204970  65.5163910
  42.7162250  24.6473890  66.1584980  43.2259550  24.5466850  64.7365580
  51.5626780  17.8350050  62.9840250  50.8582350  18.1234940  63.5643360
  51.9238940  18.6450160  62.6239810  41.4805350  16.0919750  65.3460860
  41.8222160  16.9361800  65.0514730  40.5421160  16.2403490  65.4626200
  42.2611970  25.9885770  67.3313090  42.8785970  26.6636850  67.0497540
  41.4005090  26.3973750  67.2400590  37.5544310  25.1785630  56.2119940
  37.1772290  25.6672730  55.4804840  37.8117380  25.8510910  56.8426470
  53.1789560  27.4525180  65.2467730  52.4953080  28.1224290  65.2384400
  53.7183850  27.6505830  64.4812590  54.6313700  17.2804840  63.3749460
  53.6838610  17.3143820  63.5064890  54.9563690  18.0943790  63.7598820
  45.1633240  13.5802020  61.6705450  45.4708220  13.0248910  60.9540950
  44.2333940  13.7146480  61.4878440  50.7148300  29.2969310  63.9612910
  50.7275460  28.8931600  63.0935170  50.1623520  30.0716600  63.8574340
  52.0093720  26.0185530  59.0503080  51.8990050  25.0759860  59.1752500
  52.0061970  26.3801170  59.9365840  50.1133740  24.1999150  65.2895520
  50.5302530  23.9859260  64.4548980  50.8373560  24.4571940  65.8604140
  47.5514000  21.6450850  58.4065570  46.6243280  21.5788230  58.6354040
  47.7038820  22.5830980  58.2920810  47.5383080  17.9167850  55.4032730
  46.5986750  18.0781810  55.4885190  47.8566340  18.6353530  54.8568720
  54.0595840  22.5986370  65.3811760  53.2314470  22.6679460  64.9061890
  54.6546320  23.1840680  64.9127590  51.5811290  23.2071150  58.9100820
  50.9623710  22.8690700  58.2627120  51.5635740  22.5630910  59.6180010
  51.0237850  19.3855690  66.3266630  50.6109030  20.2109400  66.5806620
  50.2913800  18.8000730  66.1342990  43.1570640  22.1715590  61.1885300
  42.7527640  21.4592840  60.6931200  43.2433760  21.8268830  62.0773340
  43.6252340  25.8583150  63.3524510  43.3280630  25.2528620  62.6732290
  44.5752160  25.8960460  63.2413870  41.8699260  18.9458800  64.9684340
  42.4213850  19.0554140  64.1937590  42.3842770  19.3196400  65.6839570
  51.7137950  29.4315020  67.0147610  51.2368510  30.2387210  66.8220220
  51.0299740  28.7793350  67.1673820  49.7575990  22.4457960  55.9173570
  50.1969270  21.6080390  55.7711390  50.4704410  23.0787360  56.0037710
  47.8671370  27.3854030  59.8854810  48.3067280  28.1278360  59.4710200
  47.8058260  27.6280600  60.8093770  53.3393130  13.7000770  54.2314610
  53.0265790  13.7927600  55.1313680  54.1005600  14.2781800  54.1812040
  39.8575270  21.0660570  58.6891950  39.7372870  21.7922660  58.0773220
  39.5476160  20.2963480  58.2119860  37.4960640  24.2375710  64.4960590
  37.5741060  24.3724480  63.5516310  38.1102320  23.5291600  64.6888710
  38.7408270  25.9375900  60.9066770  38.3336350  26.0790490  60.0520370
  39.6321280  25.6536060  60.7037980  50.5341550  30.3723150  57.2417820
  50.3742690  30.0826090  58.1399650  50.3688260  29.5963280  56.7063050
  43.0129930  30.1521680  59.0189440  42.8372410  29.2357220  58.8057240
  42.1585670  30.5108970  59.2587240  50.2367680  27.8810710  55.8015820
  49.5432840  27.8788000  55.1418100  50.9790540  27.4570030  55.3709990
  49.8017610  29.5073420  59.8764310  50.2574560  28.7262800  60.1902930
  50.1410130  30.2180240  60.4205490  37.5520160  25.2789880  67.0355050
  37.7151200  24.8095240  66.2174420  38.0172610  24.7713440  67.7003890
  42.3238930  14.4095640  62.0715620  41.8807080  15.1905180  61.7400140
  42.8823920  14.7325530  62.7786560  45.4397750  14.0306340  56.9521450
  44.8151930  14.0266210  57.6774760  45.3527870  13.1637300  56.5557420
  44.3614830  14.9542970  63.9305220  44.6587160  15.8605800  63.8497240
  44.9100390  14.4661750  63.3164790  42.1153150  19.5329210  59.7996870
  41.8894070  19.3166380  60.7043490  41.3345680  19.9657670  59.4542840
  49.3450910  19.5392580  58.3987520  48.7459800  20.2628380  58.2151140
  49.8930520  19.4769360  57.6163970  47.9515780  18.1756120  60.4290800
  48.3445350  18.4928320  59.6159490  48.3132630  17.2968000  60.5435320
  36.9879950  14.7656920  62.6521000  36.6993000  15.3359780  63.3645980
  37.7325710  14.2861370  63.0152230  37.1750180  18.7077040  53.8623720
  37.0924850  19.6507800  54.0038710  36.8233240  18.5651950  52.9836070
  48.5370920  20.7661870  64.5241580  47.8052040  21.2748680  64.8731680
  48.1395260  19.9491850  64.2230360  44.9748310  17.4416070  62.9294070
  44.9784370  17.0006020  62.0798610  45.8699430  17.7633400  63.0365890
  40.8250690  17.3242560  61.8888280  40.4850740  17.8017790  62.6455330
  40.0628010  16.8707680  61.5289380  45.0368460  18.4428150  55.9200830
  45.1581280  18.4014630  56.8686650  44.6516970  19.3052300  55.7647560
  48.9996830  16.2195550  63.9364520  49.0169570  16.6704200  64.7806370
  48.7512410  15.3201190  64.1497960  44.0489960  20.7529290  55.3184130
  43.4806860  20.3047540  54.6920040  44.7578960  21.1122070  54.7849280
  45.2756280  21.5017850  64.6759480  45.6426410  21.0276420  65.4220820
  45.0861340  22.3759420  65.0167820  38.1396770  16.2461540  60.8052950
  37.8543690  15.8817210  61.6431570  38.0775630  15.5142000  60.1916090
  43.0655650  20.5426490  66.9943690  42.7612720  21.4218470  67.2194050
  44.0202110  20.6026280  67.0301130  41.5937440  24.7487480  57.5910540
  40.8199700  24.2085100  57.4309260  42.3232070  24.2294090  57.2528300
  52.3525420  23.7452840  63.3836930  53.0724540  24.2408130  62.9933040
  52.1507240  23.0670730  62.7390800  47.8135360  15.1390800  57.5266320
  46.9999970  14.6403970  57.4511630  47.6197310  15.9789050  57.1102670
  50.5283750  19.5110450  55.8228480  51.4163370  19.8227680  55.6479820
  50.4988840  18.6382700  55.4309060  41.6374840  24.4167860  61.2289350
  42.1553510  23.6136120  61.1746240  41.1858860  24.3547000  62.0706180
  46.5244340  25.6834140  56.5016650  46.8660040  26.4276370  56.0059970
  45.6957050  25.9965260  56.8641480  52.7998020  20.8222290  55.2908340
  52.7161740  21.2536510  54.4404780  53.5192210  21.2820640  55.7235160
  53.8285270  27.6764550  58.0190470  53.1861430  27.0220170  58.2934190
  53.4415930  28.0819640  57.2431140  49.4071750  25.0049980  61.8662160
  49.7595570  24.4078110  61.2063530  48.5234080  24.6794210  62.0370410
  45.4935030  25.7647670  59.2732570  46.1806160  26.3116880  59.6540160
  44.7067450  26.3088400  59.3082180  37.6327430  21.3820490  54.7649650
  38.5022280  21.6645290  55.0485570  37.1417750  22.1956360  54.6498460
  44.7962240  22.7693700  58.8857930  45.2525020  23.5798950  59.1118120
  44.4450450  22.4516840  59.7176420  47.0994850  28.2800040  66.1150230
  47.7437070  28.4859420  66.7923650  47.4624290  27.5188440  65.6621080
  40.6974020  13.1131350  59.3580450  40.5688650  13.1049250  60.3065370
  39.8736040  13.4514440  59.0071460  48.3726930  26.2832390  64.8327680
  49.0149160  25.5825550  64.9459850  48.8976280  27.0630830  64.6524570
  52.2182650  26.5681010  54.5566820  51.9920230  25.8511450  55.1491460
  51.8278850  26.3193450  53.7188570  37.9998680  30.5947870  55.3311280
  38.3596320  31.1937210  54.6768550  37.8591020  31.1407760  56.1046310
  51.7998900  24.4852950  56.2180980  51.5120600  24.9465640  57.0058860
  52.5951070  24.0250720  56.4865200  44.0167300  27.9779070  56.1484950
  44.0077400  28.7108760  55.5329460  43.0965660  27.7310650  56.2411910
  39.6173940  23.1993960  56.8931710  39.0101890  23.9392860  56.9027010
  40.0923290  23.2893320  56.0669910  49.1906730  17.3644780  66.5688600
  49.5587550  16.5439990  66.8968170  48.3304930  17.4246670  66.9844250
  52.5568760  16.3201720  57.3776160  51.9281920  16.4247390  56.6634390
  52.0620680  16.5398500  58.1670040  47.0026900  28.0407310  54.8110140
  47.1038880  27.8371300  53.8812120  46.1028640  27.7865590  55.0157920
  44.5252790  18.5987670  58.7934040  43.8168940  19.0674010  59.2347650
  44.8097270  17.9409680  59.4279230  46.1508720  20.0184370  66.7926570
  46.6493970  20.4930190  67.4578420  46.2931670  19.0947890  66.9996600
  48.5568220  15.3238330  60.2329830  48.4336000  15.3424460  59.2839340
  49.5052780  15.3717270  60.3528230  45.6445010  30.5593630  59.5057810
  45.8986510  30.5215020  58.5837180  44.6957490  30.4326960  59.4986060
  42.7287810  16.9072750  56.1684750  43.5778340  17.3442900  56.1024940
  42.3619080  17.2193010  56.9956810  51.6497590  21.4785510  61.0816320
  50.7087730  21.4935740  61.2564010  51.9641660  20.6921470  61.5276620
  41.6279230  23.1605110  54.6420280  42.3942500  23.0486470  55.2045710
  41.7053920  22.4643080  53.9897050  40.3225990  20.5930180  55.3253170
  40.4029580  19.6457690  55.4370570  41.2145740  20.9237060  55.4313830
  53.6523170  28.6494360  62.7570580  53.7770590  29.4725530  63.2294390
  54.5188730  28.4385090  62.4094730  41.1240700  30.7425570  62.4287710
  41.8603180  30.1941030  62.6996280  41.5081620  31.6081580  62.2893700
  38.0086180  26.8099140  58.3029220  37.0825960  27.0520280  58.2934630
  38.4742610  27.6373400  58.1813970  44.2343010  29.9155880  54.2513280
  45.0271620  30.2044710  53.7995070  43.7147360  29.4848050  53.5725760
  53.2873180  29.1426010  55.6750020  53.0014690  28.7291150  54.8604200
  53.0892730  30.0713720  55.5550540  44.7520410  25.1359290  54.1155630
  44.6471050  24.5211640  54.8417010  44.5844630  24.6125180  53.3318640
  47.9923140  24.1979320  54.7197620  47.4433240  24.6448620  55.3640360
  48.6142400  23.6928570  55.2435290  43.6598260  23.1570240  56.6162920
  44.0814680  22.9910110  57.4594310  43.7849100  22.3470470  56.1218060
  46.1725900  22.1807850  53.8640020  46.6931560  21.4656870  53.4981170
  46.8194300  22.8193720  54.1640530  45.0759420  14.6602400  66.5358580
  44.6276720  14.6826660  65.6904130  44.4424620  14.2621420  67.1328880
  45.4818970  23.5556730  67.1571020  45.9007080  24.3989460  66.9847260
  44.5627600  23.6928770  66.9277800  50.1570770  21.8410100  67.1171370
  49.6305990  22.3652720  66.5136510  50.5002110  22.4737490  67.7481100
  42.5557160  19.2303470  53.5621080  42.3546220  18.3670830  53.9234420
  42.3849210  19.1436830  52.6242680  50.0345470  14.0411700  56.0907960
  50.3147760  13.1979600  56.4467380  49.2611200  14.2734810  56.6046710
  41.3539960  16.3304090  53.5498960  41.6565860  16.3371520  52.6418110
  42.0934550  15.9801950  54.0466620  44.5724890  15.2738710  54.5355160
  44.2246890  14.5962700  53.9557610  44.7737660  14.8128220  55.3498550
  46.7373930  30.2619460  56.1541760  47.6324720  30.6004430  56.1760520
  46.7691560  29.5398870  55.5266040  40.3770090  25.6346510  54.3828760
  40.8144960  26.1776180  55.0386340  40.8617820  24.8093460  54.3925100
  37.5915890  28.4235540  61.8349020  37.9218900  27.5556600  61.6027660
  38.0206890  28.6294060  62.6653980  42.1877810  26.7544550  59.4950990
  41.8873350  26.6309520  60.3954900  42.0815300  25.8953140  59.0866720
  38.0806100  29.2906130  64.5730650  37.6437090  29.4706930  65.4054800
  38.6483780  30.0480750  64.4312370  54.9569730  26.5340950  54.1977670
  54.1262690  26.6017600  54.6684900  55.1341560  27.4245070  53.8944530
  54.4126190  23.2788430  56.7011870  55.1745100  23.8485080  56.8071560
  54.4280560  22.7115630  57.4720180  37.9130530  21.8026360  60.9319530
  37.2579370  21.5338000  60.2879230  38.7508480  21.6930840  60.4821510
  55.4186160  24.1338530  61.5453800  55.7894990  23.3505850  61.1389770
  56.0588090  24.8227630  61.3671100  52.4019920  25.5175110  66.9584120
  51.5879760  25.9472270  67.2209910  52.8094120  26.1293520  66.3453170
  54.4645360  23.5722800  53.8584390  54.7394200  24.4801680  53.7303610
  54.2756100  23.5085330  54.7946380  50.8620970  16.5967650  55.1538020
  51.2805850  16.4098630  54.3134680  50.5557030  15.7446700  55.4640950
  54.3610700  21.5091790  58.8513820  53.9854300  20.7419720  58.4195110
  53.6313820  21.8914490  59.3388750  38.9506460  22.1878930  65.4722870
  39.3179500  22.1006330  66.3518890  38.3817280  21.4245480  65.3729730
  37.1268610  19.0125290  56.8744860  36.2232690  19.2755490  56.6996520
  37.6109230  19.2836460  56.0944820  53.6361660  19.7349280  62.1521060
  54.1599140  19.2411930  61.5211230  54.2221080  19.8699640  62.8968630
  53.8151380  19.8189150  65.6740610  52.8654090  19.7852690  65.7885600
  53.9964390  20.7289260  65.4390380  39.6695820  18.0690830  54.7839240
  40.3787520  17.6474050  54.2986520  38.9535760  18.1366060  54.1522590
  39.3169980  14.1230160  53.8241890  40.0398110  14.6639100  54.1423110
  39.5894500  13.8493580  52.9483430  53.1261630  18.9922630  58.0913470
  53.6220750  18.7593500  58.8762350  52.9277700  18.1534470  57.6751110
  39.0062170  13.3736350  63.7264510  39.6538360  12.8233730  63.2859670
  39.4264010  13.6279500  64.5480320  54.5548790  17.6283580  60.6251150
  54.4448070  17.4739620  61.5633420  55.3156380  17.1004520  60.3826560
  52.9014510  13.5677710  67.0834150  53.5386730  14.1811850  67.4493340
  53.0489400  13.6038370  66.1383380  55.4439060  15.4591500  53.8657290
  56.3688370  15.3272680  53.6575580  55.4214850  15.5384320  54.8193740
  55.5177550  16.2302160  56.4914000  54.7229050  16.1647280  57.0206910
  55.7220830  17.1652800  56.4799350  52.4595970  30.2693710  60.4852390
  53.0555040  29.9478280  59.8086810  52.7174120  29.7965530  61.2765660
  38.7594170  13.5292020  66.4689830  38.4108990  13.9855840  67.2348010
  38.4281870  12.6349150  66.5512260  44.0664570  28.2571210  66.2352740
  43.8255930  28.5245770  65.3483260  45.0067210  28.4276940  66.2903600
  55.3268730  30.2765590  67.0363380  54.8327010  30.6734460  66.3190510
  54.7182020  29.6514800  67.4300660  49.6501590  12.9406100  65.9570830
  48.7761430  13.2741210  65.7543760  49.5412340  12.4679280  66.7822700
  50.5573570  15.1476970  67.3412550  50.2286930  14.3328730  66.9614280
  51.5055870  15.1046780  67.2178240  53.0108180  30.9189010  64.3150120
  52.5511150  31.6704820  63.9408140  52.3820640  30.1995480  64.2564920
  39.8358800  27.0132250  66.7048840  39.1092860  26.3937540  66.6374790
  39.8967950  27.4072860  65.8346920  43.4403900  29.2277250  63.4898250
  43.9568920  28.6164610  62.9646510  44.0901280  29.7306030  63.9809260
  46.1799400  30.1185740  64.3167230  46.4677210  29.8640040  63.4400240
  46.6922620  29.5663100  64.9072800  47.3976410  13.8575940  64.8963740
  46.6148200  14.3321440  65.1760500  47.1039340  12.9530770  64.7876920
  51.9497480  14.5599040  62.9412830  52.3905570  14.5044140  62.0934430
  51.6805070  15.4757050  63.0123010  53.8136050  14.1914280  60.9521650
  53.7524450  13.2475500  60.8052670  54.5928080  14.2994370  61.4975110
  38.1188800  30.3306640  59.9145600  37.9510840  29.6977320  60.6127490
  37.2523310  30.5366040  59.5639790  38.7416820  14.1623420  57.4177460
  39.4996180  14.2752300  56.8441490  38.2793990  14.9992620  57.3720890
  45.2830630  16.2762690  60.4079770  44.4705140  15.9019580  60.0675650
  45.7872270  15.5207770  60.7100960  49.7855610  12.9405140  61.6462840
  50.3884980  13.5125350  62.1211360  49.0448600  13.5044580  61.4236740
  52.9290210  13.3426700  56.9203120  53.1240840  14.2410150  57.1870550
  52.1420080  13.1113780  57.4136070  39.7251500  29.0239870  57.3595740
  39.1999120  29.4047900  56.6557700  39.6496080  29.6490640  58.0805450
  41.1141970  14.6887470  55.9579430  41.6434730  13.9017270  55.8287380
  41.7470290  15.3678660  56.1914960  43.3079810  14.4262610  59.0124820
  42.6782550  13.7249920  59.1794950  42.7684950  15.1866740  58.7957980
  54.4816820  30.5827410  58.6809680  54.6569010  29.8965150  58.0370600
  53.7838390  31.1074460  58.2886350  42.3244470  30.9722250  56.2344990
  43.0563290  30.6881530  55.6868880  42.5838140  30.7335530  57.1244370
  41.4859260  27.0886980  56.2391320  40.8568140  27.5572080  56.7877150
  41.6007090  26.2436200  56.6737510  48.9408980  21.1392640  42.3892520
  48.8603030  20.2247250  42.1184230  48.5273400  21.6359710  41.6832230
  47.0727020  22.9171660  44.2701790  46.2969120  22.4372100  44.5600360
  47.7239950  22.2377310  44.0957950  41.0892850  23.2291470  45.1477550
  40.2577730  22.9740180  45.5474060  41.6973830  23.3002240  45.8835470
  51.0934450  27.3231850  43.0500920  50.6315980  26.5519090  43.3788090
  51.9060000  27.3497920  43.5553370  39.4984800  18.1893360  38.9319940
  38.6101500  18.5309330  38.8299820  39.7825990  17.9893680  38.0400770
  37.4617810  20.7899010  44.8159640  38.0333920  20.0221210  44.8163280
  37.4619350  21.0887770  43.9066250  38.7042680  16.1983370  46.6028570
  38.5245520  15.3009120  46.8831330  38.3022760  16.7455240  47.2775520
  47.5441180  18.3999230  44.5040880  47.9206000  17.5271110  44.3914550
  47.4460690  18.7357930  43.6131320  41.6746190  16.7724860  39.9658320
  41.7812940  17.6728590  40.2727080  40.7638550  16.7242830  39.6752970
  51.3265300  15.8949670  41.4369220  52.1474920  15.4046240  41.4794700
  51.3599380  16.4847330  42.1901060  39.3229350  18.6943870  45.2110910
  40.0039460  18.9582240  45.8298310  39.0077400  17.8544740  45.5448920
  43.5153920  19.7411230  44.2983500  44.0232140  20.2392200  44.9388520
  44.0467160  18.9646430  44.1222860  55.6164850  17.9116420  48.0012850
  54.9117020  18.2998130  47.4827960  55.8822770  18.6066710  48.6033780
  41.7990020  14.3809790  48.5646920  41.8008460  14.8982180  47.7592820
  40.9694330  13.9039970  48.5416850  48.1861110  24.4929100  40.0636820
  47.5678380  24.9578550  39.4999540  48.6984360  25.1856580  40.4806330
  43.0492870  24.0204970  46.7420420  42.7162250  24.6473890  47.3841490
  43.2259550  24.5466850  45.9622090  51.5626780  17.8350050  44.2096760
  50.8582350  18.1234940  44.7899870  51.9238940  18.6450160  43.8496320
  41.4805350  16.0919750  46.5717370  41.8222160  16.9361800  46.2771240
  40.5421160  16.2403490  46.6882710  42.2611970  25.9885770  48.5569600
  42.8785970  26.6636850  48.2754050  41.4005090  26.3973750  48.4657100
  53.1789560  27.4525180  46.4724240  52.4953080  28.1224290  46.4640910
  53.7183850  27.6505830  45.7069100  54.6313700  17.2804840  44.6005970
  53.6838610  17.3143820  44.7321400  54.9563690  18.0943790  44.9855330
  45.1633240  13.5802020  42.8961960  45.4708220  13.0248910  42.1797460
  44.2333940  13.7146480  42.7134950  50.7148300  29.2969310  45.1869420
  50.7275460  28.8931600  44.3191680  50.1623520  30.0716600  45.0830850
  52.0093720  26.0185530  40.2759590  51.8990050  25.0759860  40.4009010
  52.0061970  26.3801170  41.1622350  50.1133740  24.1999150  46.5152030
  50.5302530  23.9859260  45.6805490  50.8373560  24.4571940  47.0860650
  47.5514000  21.6450850  39.6322080  46.6243280  21.5788230  39.8610550
  47.7038820  22.5830980  39.5177320  47.5383080  17.9167850  36.6289240
  46.5986750  18.0781810  36.7141700  47.8566340  18.6353530  36.0825230
  54.0595840  22.5986370  46.6068270  53.2314470  22.6679460  46.1318400
  54.6546320  23.1840680  46.1384100  51.5811290  23.2071150  40.1357330
  50.9623710  22.8690700  39.4883630  51.5635740  22.5630910  40.8436520
  51.0237850  19.3855690  47.5523140  50.6109030  20.2109400  47.8063130
  50.2913800  18.8000730  47.3599500  43.1570640  22.1715590  42.4141810
  42.7527640  21.4592840  41.9187710  43.2433760  21.8268830  43.3029850
  41.8699260  18.9458800  46.1940850  42.4213850  19.0554140  45.4194100
  42.3842770  19.3196400  46.9096080  51.7137950  29.4315020  48.2404120
  51.2368510  30.2387210  48.0476730  51.0299740  28.7793350  48.3930330
  42.7170770  25.5964840  51.2288820  41.8199300  25.8204810  51.4762220
  42.7423640  25.7199780  50.2800220  49.7575990  22.4457960  37.1430080
  50.1969270  21.6080390  36.9967900  50.4704410  23.0787360  37.2294220
  41.5441990  22.4678160  49.8046190  41.4049760  23.3400960  50.1733590
  40.6623350  22.1250970  49.6594130  43.3422340  28.4099860  52.0131340
  43.3137770  28.8142810  51.1459770  43.1787310  27.4810220  51.8502940
  53.3393130  13.7000770  35.4571120  53.0265790  13.7927600  36.3570190
  54.1005600  14.2781800  35.4068550  39.8575270  21.0660570  39.9148460
  39.7372870  21.7922660  39.3029730  39.5476160  20.2963480  39.4376370
  55.2937160  29.1926960  53.3095510  55.7696880  29.6709850  53.9884590
  55.9144320  29.1244450  52.5841010  37.4960640  24.2375710  45.7217100
  37.5741060  24.3724480  44.7772820  38.1102320  23.5291600  45.9145220
  54.6970410  26.3839810  50.4695520  54.8233470  26.1451690  49.5512700
  54.7391790  25.5524350  50.9417600  48.5587150  30.0867810  49.0390330
  49.0731820  29.9975820  49.8412760  47.7156230  30.4327510  49.3318240
  54.5494420  18.4372270  51.4345260  53.9338690  18.9451940  50.9060720
  54.2290840  17.5370600  51.3771200  37.5520160  25.2789880  48.2611560
  37.7151200  24.8095240  47.4430930  38.0172610  24.7713440  48.9260400
  42.3238930  14.4095640  43.2972130  41.8807080  15.1905180  42.9656650
  42.8823920  14.7325530  44.0043070  46.6108740  17.2764160  48.9007450
  46.1488110  17.4847180  49.7127390  46.2086850  16.4623510  48.5978120
  51.6113250  18.4973110  50.0304110  50.7606840  18.1978860  50.3513180
  51.4515040  18.7415120  49.1187930  48.7062960  19.9974860  52.1302900
  49.0316370  19.1638610  51.7905130  49.4943290  20.5203380  52.2781230
  45.4397750  14.0306340  38.1777960  44.8151930  14.0266210  38.9031270
  45.3527870  13.1637300  37.7813930  44.3614830  14.9542970  45.1561730
  44.6587160  15.8605800  45.0753750  44.9100390  14.4661750  44.5421300
  42.1153150  19.5329210  41.0253380  41.8894070  19.3166380  41.9300000
  41.3345680  19.9657670  40.6799350  49.3450910  19.5392580  39.6244030
  48.7459800  20.2628380  39.4407650  49.8930520  19.4769360  38.8420480
  44.5552360  20.4314790  51.6913650  44.4595960  19.4909520  51.5414050
  45.3984340  20.6529860  51.2961720  47.9515780  18.1756120  41.6547310
  48.3445350  18.4928320  40.8416000  48.3132630  17.2968000  41.7691830
  39.6862900  16.8428460  49.8447430  39.2926290  17.6903670  50.0520210
  38.9981300  16.2054830  50.0356070  46.2607950  16.9263430  52.9144170
  45.5706270  16.7335630  53.5490260  47.0040250  17.2098070  53.4468470
  36.9879950  14.7656920  43.8777510  36.6993000  15.3359780  44.5902490
  37.7325710  14.2861370  44.2408740  37.1750180  18.7077040  35.0880230
  37.0924850  19.6507800  35.2295220  36.8233240  18.5651950  34.2092580
  48.5370920  20.7661870  45.7498090  47.8052040  21.2748680  46.0988190
  48.1395260  19.9491850  45.4486870  44.9748310  17.4416070  44.1550580
  44.9784370  17.0006020  43.3055120  45.8699430  17.7633400  44.2622400
  40.8250690  17.3242560  43.1144790  40.4850740  17.8017790  43.8711840
  40.0628010  16.8707680  42.7545890  45.0368460  18.4428150  37.1457340
  45.1581280  18.4014630  38.0943160  44.6516970  19.3052300  36.9904070
  48.9996830  16.2195550  45.1621030  49.0169570  16.6704200  46.0062880
  48.7512410  15.3201190  45.3754470  44.0489960  20.7529290  36.5440640
  43.4806860  20.3047540  35.9176550  44.7578960  21.1122070  36.0105790
  52.4267580  13.6327730  51.0007410  52.7513350  12.9017390  51.5265390
  52.4624090  13.3141370  50.0988400  39.1259140  24.6541310  50.4207370
  38.7413930  24.0134980  51.0190330  39.4371330  25.3577430  50.9902100
  45.2756280  21.5017850  45.9015990  45.6426410  21.0276420  46.6477330
  45.0861340  22.3759420  46.2424330  38.1396770  16.2461540  42.0309460
  37.8543690  15.8817210  42.8688080  38.0775630  15.5142000  41.4172600
  43.0655650  20.5426490  48.2200200  42.7612720  21.4218470  48.4450560
  44.0202110  20.6026280  48.2557640  52.3525420  23.7452840  44.6093440
  53.0724540  24.2408130  44.2189550  52.1507240  23.0670730  43.9647310
  47.8135360  15.1390800  38.7522830  46.9999970  14.6403970  38.6768140
  47.6197310  15.9789050  38.3359180  47.7344220  23.8161900  50.4962440
  47.6681530  22.8957570  50.2420030  47.1049360  23.9137340  51.2107080
  50.5283750  19.5110450  37.0484990  51.4163370  19.8227680  36.8736330
  50.4988840  18.6382700  36.6565570  46.5244340  25.6834140  37.7273160
  46.8660040  26.4276370  37.2316480  45.6957050  25.9965260  38.0897990
  39.1219380  21.3829230  49.3671560  38.7634320  22.0483080  49.9544900
  38.8273940  20.5512780  49.7384180  42.3232500  21.8413470  52.2511110
  42.0232640  21.9870650  51.3538930  43.0943740  21.2818760  52.1584500
  47.6660950  26.6382470  50.2466240  47.6805490  25.7063430  50.0285150
  46.9586050  26.7242230  50.8856010  52.7998020  20.8222290  36.5164850
  52.7161740  21.2536510  35.6661290  53.5192210  21.2820640  36.9491670
  53.8772160  23.2789810  49.5934820  53.1520350  23.8718590  49.3964210
  54.4047620  23.2713350  48.7948190  53.8285270  27.6764550  39.2446980
  53.1861430  27.0220170  39.5190700  53.4415930  28.0819640  38.4687650
  49.4071750  25.0049980  43.0918670  49.7595570  24.4078110  42.4320040
  48.5234080  24.6794210  43.2626920  44.7962240  22.7693700  40.1114440
  45.2525020  23.5798950  40.3374630  44.4450450  22.4516840  40.9432930
  47.0994850  28.2800040  47.3406740  47.7437070  28.4859420  48.0180160
  47.4624290  27.5188440  46.8877590  40.6974020  13.1131350  40.5836960
  40.5688650  13.1049250  41.5321880  39.8736040  13.4514440  40.2327970
  48.3726930  26.2832390  46.0584190  49.0149160  25.5825550  46.1716360
  48.8976280  27.0630830  45.8781080  52.2182650  26.5681010  35.7823330
  51.9920230  25.8511450  36.3747970  51.8278850  26.3193450  34.9445080
  50.1464550  27.0827290  49.2620250  50.4820790  27.6693980  49.9398170
  49.2264890  26.9520000  49.4918040  37.6967950  14.8722470  50.0443660
  36.9826470  15.0719390  50.6496270  38.1162990  14.0962040  50.4158460
  51.7998900  24.4852950  37.4437490  51.5120600  24.9465640  38.2315370
  52.5951070  24.0250720  37.7121710  37.9840540  28.8602730  51.0310190
  38.0931660  27.9197470  50.8905580  37.3321100  29.1257480  50.3823920
  45.9753130  27.1318620  52.4308310  45.6550000  26.4127860  52.9754000
  45.3011490  27.8073690  52.5044370  39.6173940  23.1993960  38.1188220
  39.0101890  23.9392860  38.1283520  40.0923290  23.2893320  37.2926420
  49.1906730  17.3644780  47.7945110  49.5587550  16.5439990  48.1224680
  48.3304930  17.4246670  48.2100760  52.5568760  16.3201720  38.6032670
  51.9281920  16.4247390  37.8890900  52.0620680  16.5398500  39.3926550
  44.5252790  18.5987670  40.0190550  43.8168940  19.0674010  40.4604160
  44.8097270  17.9409680  40.6535740  46.1508720  20.0184370  48.0183080
  46.6493970  20.4930190  48.6834930  46.2931670  19.0947890  48.2253110
  48.5568220  15.3238330  41.4586340  48.4336000  15.3424460  40.5095850
  49.5052780  15.3717270  41.5784740  42.7287810  16.9072750  37.3941260
  43.5778340  17.3442900  37.3281450  42.3619080  17.2193010  38.2213320
  53.3575580  16.2352330  48.8611470  52.8549180  16.9757730  49.2005280
  54.1732240  16.6236330  48.5448260  51.6497590  21.4785510  42.3072830
  50.7087730  21.4935740  42.4820520  51.9641660  20.6921470  42.7533130
  41.6279230  23.1605110  35.8676790  42.3942500  23.0486470  36.4302220
  41.7053920  22.4643080  35.2153560  40.3225990  20.5930180  36.5509680
  40.4029580  19.6457690  36.6627080  41.2145740  20.9237060  36.6570340
  53.6523170  28.6494360  43.9827090  53.7770590  29.4725530  44.4550900
  54.5188730  28.4385090  43.6351240  40.1298980  29.9271640  52.8429800
  40.9311710  30.2483690  53.2565200  39.6150800  29.5667220  53.5649710
  48.9663610  26.0351510  52.7905210  48.3601770  26.0583110  52.0500960
  48.6617720  25.3034550  53.3272460  50.3963980  29.7631800  51.4014620
  51.3485730  29.6789820  51.3514860  50.2492200  30.4273510  52.0748410
  37.8496790  22.4145100  51.7865850  38.3535810  21.8352380  52.3582080
  37.1104210  22.6985330  52.3242220  44.7520410  25.1359290  35.3412140
  44.6471050  24.5211640  36.0673520  44.5844630  24.6125180  34.5575150
  44.9034730  23.8216090  51.3201370  44.1380400  24.3901090  51.2356040
  45.0850690  23.5292300  50.4269600  47.9923140  24.1979320  35.9454130
  47.4433240  24.6448620  36.5896870  48.6142400  23.6928570  36.4691800
  52.0458080  25.5521420  51.8776390  52.7867550  25.8897180  51.3743850
  51.2830760  25.7213480  51.3246160  39.8819870  20.5574690  52.6815920
  39.9225210  20.2588560  53.5901150  40.7365370  20.9582300  52.5223440
  43.6598260  23.1570240  37.8419430  44.0814680  22.9910110  38.6850820
  43.7849100  22.3470470  37.3474570  41.8225680  19.1366790  50.6490410
  41.2922140  18.6457740  50.0213750  42.4913750  19.5650990  50.1148340
  46.1725900  22.1807850  35.0896530  46.6931560  21.4656870  34.7237680
  46.8194300  22.8193720  35.3897040  50.7203740  23.6036250  50.4131600
  51.1344760  23.7581330  51.2622020  49.7854740  23.7291470  50.5757380
  51.1925910  20.9432410  52.4170750  51.7746680  20.1884730  52.3291230
  51.3687680  21.4739850  51.6402230  42.3097980  16.1029160  50.7287700
  42.2154850  15.4849910  50.0038570  41.7295370  16.8295450  50.5017610
  45.0759420  14.6602400  47.7615090  44.6276720  14.6826660  46.9160640
  44.4424620  14.2621420  48.3585390  45.4818970  23.5556730  48.3827530
  45.9007080  24.3989460  48.2103770  44.5627600  23.6928770  48.1534310
  47.8182870  21.2872910  49.7665370  47.9379080  20.6914050  50.5060210
  48.6776870  21.3242600  49.3466670  50.1570770  21.8410100  48.3427880
  49.6305990  22.3652720  47.7393020  50.5002110  22.4737490  48.9737610
  42.5557160  19.2303470  34.7877590  42.3546220  18.3670830  35.1490930
  42.3849210  19.1436830  33.8499190  43.3326390  29.8609740  49.4985260
  42.7947480  30.5855800  49.1793960  43.5860350  29.3840080  48.7082600
  44.5851640  17.8294260  51.0241190  45.1751330  17.5210110  51.7119010
  43.7671880  17.3574010  51.1801090  49.4045070  17.4460070  51.2574210
  48.7160590  16.7841610  51.1924200  50.1251090  16.9998340  51.7022670
  50.0345470  14.0411700  37.3164470  50.3147760  13.1979600  37.6723890
  49.2611200  14.2734810  37.8303220  41.3539960  16.3304090  34.7755470
  41.6565860  16.3371520  33.8674620  42.0934550  15.9801950  35.2723130
  46.1888600  31.0960950  49.7571910  46.1147300  31.9996090  50.0644280
  45.2867440  30.7772850  49.7293980  44.5724890  15.2738710  35.7611670
  44.2246890  14.5962700  35.1814120  44.7737660  14.8128220  36.5755060
  38.0806100  29.2906130  45.7987160  37.6437090  29.4706930  46.6311310
  38.6483780  30.0480750  45.6568880  53.7168280  28.7923130  50.0864470
  53.1170270  28.8515690  49.3428390  53.8462180  27.8528110  50.2161320
  54.9569730  26.5340950  35.4234180  54.1262690  26.6017600  35.8941410
  55.1341560  27.4245070  35.1201040  54.4126190  23.2788430  37.9268380
  55.1745100  23.8485080  38.0328070  54.4280560  22.7115630  38.6976690
  55.4186160  24.1338530  42.7710310  55.7894990  23.3505850  42.3646280
  56.0588090  24.8227630  42.5927610  52.4019920  25.5175110  48.1840630
  51.5879760  25.9472270  48.4466420  52.8094120  26.1293520  47.5709680
  54.4645360  23.5722800  35.0840900  54.7394200  24.4801680  34.9560120
  54.2756100  23.5085330  36.0202890  50.8620970  16.5967650  36.3794530
  51.2805850  16.4098630  35.5391190  50.5557030  15.7446700  36.6897460
  54.3610700  21.5091790  40.0770330  53.9854300  20.7419720  39.6451620
  53.6313820  21.8914490  40.5645260  38.9506460  22.1878930  46.6979380
  39.3179500  22.1006330  47.5775400  38.3817280  21.4245480  46.5986240
  53.7510320  20.6563310  49.7109850  53.5196410  20.4276060  48.8107800
  54.0114870  21.5762860  49.6654740  38.5022460  19.0988020  50.6037800
  37.6078510  19.0654780  50.9431510  39.0420010  19.2974810  51.3689050
  52.1898390  15.8819740  52.4889550  53.0668570  15.8903140  52.8723550
  52.2019230  15.1450580  51.8781900  37.1268610  19.0125290  38.1001370
  36.2232690  19.2755490  37.9253030  37.6109230  19.2836460  37.3201330
  53.6361660  19.7349280  43.3777570  54.1599140  19.2411930  42.7467740
  54.2221080  19.8699640  44.1225140  53.8151380  19.8189150  46.8997120
  52.8654090  19.7852690  47.0142110  53.9964390  20.7289260  46.6646890
  39.6695820  18.0690830  36.0095750  40.3787520  17.6474050  35.5243030
  38.9535760  18.1366060  35.3779100  39.3169980  14.1230160  35.0498400
  40.0398110  14.6639100  35.3679620  39.5894500  13.8493580  34.1739940
  53.1261630  18.9922630  39.3169980  53.6220750  18.7593500  40.1018860
  52.9277700  18.1534470  38.9007620  39.0062170  13.3736350  44.9521020
  39.6538360  12.8233730  44.5116180  39.4264010  13.6279500  45.7736830
  54.5548790  17.6283580  41.8507660  54.4448070  17.4739620  42.7889930
  55.3156380  17.1004520  41.6083070  52.9014510  13.5677710  48.3090660
  53.5386730  14.1811850  48.6749850  53.0489400  13.6038370  47.3639890
  55.4439060  15.4591500  35.0913800  56.3688370  15.3272680  34.8832090
  55.4214850  15.5384320  36.0450250  55.5177550  16.2302160  37.7170510
  54.7229050  16.1647280  38.2463420  55.7220830  17.1652800  37.7055860
  38.7594170  13.5292020  47.6946340  38.4108990  13.9855840  48.4604520
  38.4281870  12.6349150  47.7768770  40.3658540  26.7011620  51.8599530
  40.3228170  26.3304530  52.7413990  40.4969550  27.6389190  52.0001350
  44.0664570  28.2571210  47.4609250  43.8255930  28.5245770  46.5739770
  45.0067210  28.4276940  47.5160110  46.2718990  14.7203900  51.2165760
  46.2107880  15.3125730  51.9661170  47.2119370  14.6129860  51.0716020
  48.9093550  14.3773960  50.8558050  49.5233960  14.6953250  50.1939130
  49.4543110  13.8922550  51.4753910  55.3268730  30.2765590  48.2619890
  54.8327010  30.6734460  47.5447020  54.7182020  29.6514800  48.6557170
  39.4314810  13.0568220  50.9697110  39.9797800  12.8756270  50.2063220
  39.4970120  12.2662330  51.5053420  40.2046570  29.6473870  48.9797310
  39.6106890  29.5158570  49.7187350  40.1970410  28.8112010  48.5139410
  49.6501590  12.9406100  47.1827340  48.7761430  13.2741210  46.9800270
  49.5412340  12.4679280  48.0079210  50.5573570  15.1476970  48.5669060
  50.2286930  14.3328730  48.1870790  51.5055870  15.1046780  48.4434750
  53.0108180  30.9189010  45.5406630  52.5511150  31.6704820  45.1664650
  52.3820640  30.1995480  45.4821430  39.8358800  27.0132250  47.9305350
  39.1092860  26.3937540  47.8631300  39.8967950  27.4072860  47.0603430
  47.3976410  13.8575940  46.1220250  46.6148200  14.3321440  46.4017010
  47.1039340  12.9530770  46.0133430  51.9497480  14.5599040  44.1669340
  52.3905570  14.5044140  43.3190940  51.6805070  15.4757050  44.2379520
  53.8136050  14.1914280  42.1778160  53.7524450  13.2475500  42.0309180
  54.5928080  14.2994370  42.7231620  38.7416820  14.1623420  38.6433970
  39.4996180  14.2752300  38.0698000  38.2793990  14.9992620  38.5977400
  45.2830630  16.2762690  41.6336280  44.4705140  15.9019580  41.2932160
  45.7872270  15.5207770  41.9357470  49.7855610  12.9405140  42.8719350
  50.3884980  13.5125350  43.3467870  49.0448600  13.5044580  42.6493250
  52.9290210  13.3426700  38.1459630  53.1240840  14.2410150  38.4127060
  52.1420080  13.1113780  38.6392580  41.1141970  14.6887470  37.1835940
  41.6434730  13.9017270  37.0543890  41.7470290  15.3678660  37.4171470
  43.3079810  14.4262610  40.2381330  42.6782550  13.7249920  40.4051460
  42.7684950  15.1866740  40.0214490  46.2471760  31.0401840  52.9091940
  47.1739070  30.8046110  52.9527900  46.2322190  31.8673840  52.4277970
  43.4335370  13.7046590  52.6733820  43.1519640  14.2080190  51.9094640
  43.8155070  12.9068340  52.3075950  50.0350830  13.1200170  53.2514290
  49.9216280  13.4394780  54.1465810  50.8520570  13.5212680  52.9551570
  52.8149320  30.2671700  52.7332980  53.6074640  29.7720930  52.5258940
  53.1082470  30.9461840  53.3408590  48.9408980  21.1392640  23.6149030
  48.8603030  20.2247250  23.3440740  48.5273400  21.6359710  22.9088740
  47.0727020  22.9171660  25.4958300  46.2969120  22.4372100  25.7856870
  47.7239950  22.2377310  25.3214460  41.0892850  23.2291470  26.3734060
  40.2577730  22.9740180  26.7730570  41.6973830  23.3002240  27.1091980
  51.0934450  27.3231850  24.2757430  50.6315980  26.5519090  24.6044600
  51.9060000  27.3497920  24.7809880  39.4984800  18.1893360  20.1576450
  38.6101500  18.5309330  20.0556330  39.7825990  17.9893680  19.2657280
  37.4617810  20.7899010  26.0416150  38.0333920  20.0221210  26.0419790
  37.4619350  21.0887770  25.1322760  46.5136010  25.5928850  25.5028460
  46.4444290  24.6518790  25.3417590  47.2755870  25.6830260  26.0751030
  38.7042680  16.1983370  27.8285080  38.5245520  15.3009120  28.1087840
  38.3022760  16.7455240  28.5032030  47.5441180  18.3999230  25.7297390
  47.9206000  17.5271110  25.6171060  47.4460690  18.7357930  24.8387830
  41.6746190  16.7724860  21.1914830  41.7812940  17.6728590  21.4983590
  40.7638550  16.7242830  20.9009480  51.3265300  15.8949670  22.6625730
  52.1474920  15.4046240  22.7051210  51.3599380  16.4847330  23.4157570
  39.3229350  18.6943870  26.4367420  40.0039460  18.9582240  27.0554820
  39.0077400  17.8544740  26.7705430  43.5153920  19.7411230  25.5240010
  44.0232140  20.2392200  26.1645030  44.0467160  18.9646430  25.3479370
  55.6164850  17.9116420  29.2269360  54.9117020  18.2998130  28.7084470
  55.8822770  18.6066710  29.8290290  41.7990020  14.3809790  29.7903430
  41.8008460  14.8982180  28.9849330  40.9694330  13.9039970  29.7673360
  48.1861110  24.4929100  21.2893330  47.5678380  24.9578550  20.7256050
  48.6984360  25.1856580  21.7062840  43.0492870  24.0204970  27.9676930
  42.7162250  24.6473890  28.6098000  43.2259550  24.5466850  27.1878600
  51.5626780  17.8350050  25.4353270  50.8582350  18.1234940  26.0156380
  51.9238940  18.6450160  25.0752830  41.4805350  16.0919750  27.7973880
  41.8222160  16.9361800  27.5027750  40.5421160  16.2403490  27.9139220
  37.5544310  25.1785630  18.6632960  37.1772290  25.6672730  17.9317860
  37.8117380  25.8510910  19.2939490  53.1789560  27.4525180  27.6980750
  52.4953080  28.1224290  27.6897420  53.7183850  27.6505830  26.9325610
  54.6313700  17.2804840  25.8262480  53.6838610  17.3143820  25.9577910
  54.9563690  18.0943790  26.2111840  45.1633240  13.5802020  24.1218470
  45.4708220  13.0248910  23.4053970  44.2333940  13.7146480  23.9391460
  52.0093720  26.0185530  21.5016100  51.8990050  25.0759860  21.6265520
  52.0061970  26.3801170  22.3878860  50.1133740  24.1999150  27.7408540
  50.5302530  23.9859260  26.9062000  50.8373560  24.4571940  28.3117160
  47.5514000  21.6450850  20.8578590  46.6243280  21.5788230  21.0867060
  47.7038820  22.5830980  20.7433830  47.5383080  17.9167850  17.8545750
  46.5986750  18.0781810  17.9398210  47.8566340  18.6353530  17.3081740
  54.0595840  22.5986370  27.8324780  53.2314470  22.6679460  27.3574910
  54.6546320  23.1840680  27.3640610  51.5811290  23.2071150  21.3613840
  50.9623710  22.8690700  20.7140140  51.5635740  22.5630910  22.0693030
  51.0237850  19.3855690  28.7779650  50.6109030  20.2109400  29.0319640
  50.2913800  18.8000730  28.5856010  43.1570640  22.1715590  23.6398320
  42.7527640  21.4592840  23.1444220  43.2433760  21.8268830  24.5286360
  43.6252340  25.8583150  25.8037530  43.3280630  25.2528620  25.1245310
  44.5752160  25.8960460  25.6926890  41.8699260  18.9458800  27.4197360
  42.4213850  19.0554140  26.6450610  42.3842770  19.3196400  28.1352590
  49.7575990  22.4457960  18.3686590  50.1969270  21.6080390  18.2224410
  50.4704410  23.0787360  18.4550730  41.5441990  22.4678160  31.0302700
  41.4049760  23.3400960  31.3990100  40.6623350  22.1250970  30.8850640
  47.8671370  27.3854030  22.3367830  48.3067280  28.1278360  21.9223220
  47.8058260  27.6280600  23.2606790  53.3393130  13.7000770  16.6827630
  53.0265790  13.7927600  17.5826700  54.1005600  14.2781800  16.6325060
  39.8575270  21.0660570  21.1404970  39.7372870  21.7922660  20.5286240
  39.5476160  20.2963480  20.6632880  55.2937160  29.1926960  34.5352020
  55.7696880  29.6709850  35.2141100  55.9144320  29.1244450  33.8097520
  38.7408270  25.9375900  23.3579790  38.3336350  26.0790490  22.5033390
  39.6321280  25.6536060  23.1551000  54.6970410  26.3839810  31.6952030
  54.8233470  26.1451690  30.7769210  54.7391790  25.5524350  32.1674110
  50.5341550  30.3723150  19.6930840  50.3742690  30.0826090  20.5912670
  50.3688260  29.5963280  19.1576070  43.0129930  30.1521680  21.4702460
  42.8372410  29.2357220  21.2570260  42.1585670  30.5108970  21.7100260
  50.2367680  27.8810710  18.2528840  49.5432840  27.8788000  17.5931120
  50.9790540  27.4570030  17.8223010  49.8017610  29.5073420  22.3277330
  50.2574560  28.7262800  22.6415950  50.1410130  30.2180240  22.8718510
  54.5494420  18.4372270  32.6601770  53.9338690  18.9451940  32.1317230
  54.2290840  17.5370600  32.6027710  42.3238930  14.4095640  24.5228640
  41.8807080  15.1905180  24.1913160  42.8823920  14.7325530  25.2299580
  46.6108740  17.2764160  30.1263960  46.1488110  17.4847180  30.9383900
  46.2086850  16.4623510  29.8234630  51.6113250  18.4973110  31.2560620
  50.7606840  18.1978860  31.5769690  51.4515040  18.7415120  30.3444440
  48.7062960  19.9974860  33.3559410  49.0316370  19.1638610  33.0161640
  49.4943290  20.5203380  33.5037740  45.4397750  14.0306340  19.4034470
  44.8151930  14.0266210  20.1287780  45.3527870  13.1637300  19.0070440
  44.3614830  14.9542970  26.3818240  44.6587160  15.8605800  26.3010260
  44.9100390  14.4661750  25.7677810  42.1153150  19.5329210  22.2509890
  41.8894070  19.3166380  23.1556510  41.3345680  19.9657670  21.9055860
  49.3450910  19.5392580  20.8500540  48.7459800  20.2628380  20.6664160
  49.8930520  19.4769360  20.0676990  44.5552360  20.4314790  32.9170160
  44.4595960  19.4909520  32.7670560  45.3984340  20.6529860  32.5218230
  47.9515780  18.1756120  22.8803820  48.3445350  18.4928320  22.0672510
  48.3132630  17.2968000  22.9948340  39.6862900  16.8428460  31.0703940
  39.2926290  17.6903670  31.2776720  38.9981300  16.2054830  31.2612580
  46.2607950  16.9263430  34.1400680  45.5706270  16.7335630  34.7746770
  47.0040250  17.2098070  34.6724980  36.9879950  14.7656920  25.1034020
  36.6993000  15.3359780  25.8159000  37.7325710  14.2861370  25.4665250
  37.1750180  18.7077040  16.3136740  37.0924850  19.6507800  16.4551730
  36.8233240  18.5651950  15.4349090  48.5370920  20.7661870  26.9754600
  47.8052040  21.2748680  27.3244700  48.1395260  19.9491850  26.6743380
  44.9748310  17.4416070  25.3807090  44.9784370  17.0006020  24.5311630
  45.8699430  17.7633400  25.4878910  40.8250690  17.3242560  24.3401300
  40.4850740  17.8017790  25.0968350  40.0628010  16.8707680  23.9802400
  45.0368460  18.4428150  18.3713850  45.1581280  18.4014630  19.3199670
  44.6516970  19.3052300  18.2160580  48.9996830  16.2195550  26.3877540
  49.0169570  16.6704200  27.2319390  48.7512410  15.3201190  26.6010980
  44.0489960  20.7529290  17.7697150  43.4806860  20.3047540  17.1433060
  44.7578960  21.1122070  17.2362300  52.4267580  13.6327730  32.2263920
  52.7513350  12.9017390  32.7521900  52.4624090  13.3141370  31.3244910
  45.2756280  21.5017850  27.1272500  45.6426410  21.0276420  27.8733840
  45.0861340  22.3759420  27.4680840  38.1396770  16.2461540  23.2565970
  37.8543690  15.8817210  24.0944590  38.0775630  15.5142000  22.6429110
  43.0655650  20.5426490  29.4456710  42.7612720  21.4218470  29.6707070
  44.0202110  20.6026280  29.4814150  41.5937440  24.7487480  20.0423560
  40.8199700  24.2085100  19.8822280  42.3232070  24.2294090  19.7041320
  52.3525420  23.7452840  25.8349950  53.0724540  24.2408130  25.4446060
  52.1507240  23.0670730  25.1903820  47.8135360  15.1390800  19.9779340
  46.9999970  14.6403970  19.9024650  47.6197310  15.9789050  19.5615690
  47.7344220  23.8161900  31.7218950  47.6681530  22.8957570  31.4676540
  47.1049360  23.9137340  32.4363590  50.5283750  19.5110450  18.2741500
  51.4163370  19.8227680  18.0992840  50.4988840  18.6382700  17.8822080
  41.6374840  24.4167860  23.6802370  42.1553510  23.6136120  23.6259260
  41.1858860  24.3547000  24.5219200  46.5244340  25.6834140  18.9529670
  46.8660040  26.4276370  18.4572990  45.6957050  25.9965260  19.3154500
  39.1219380  21.3829230  30.5928070  38.7634320  22.0483080  31.1801410
  38.8273940  20.5512780  30.9640690  42.3232500  21.8413470  33.4767620
  42.0232640  21.9870650  32.5795440  43.0943740  21.2818760  33.3841010
  47.6660950  26.6382470  31.4722750  47.6805490  25.7063430  31.2541660
  46.9586050  26.7242230  32.1112520  52.7998020  20.8222290  17.7421360
  52.7161740  21.2536510  16.8917800  53.5192210  21.2820640  18.1748180
  53.8772160  23.2789810  30.8191330  53.1520350  23.8718590  30.6220720
  54.4047620  23.2713350  30.0204700  53.8285270  27.6764550  20.4703490
  53.1861430  27.0220170  20.7447210  53.4415930  28.0819640  19.6944160
  49.4071750  25.0049980  24.3175180  49.7595570  24.4078110  23.6576550
  48.5234080  24.6794210  24.4883430  45.4935030  25.7647670  21.7245590
  46.1806160  26.3116880  22.1053180  44.7067450  26.3088400  21.7595200
  37.6327430  21.3820490  17.2162670  38.5022280  21.6645290  17.4998590
  37.1417750  22.1956360  17.1011480  44.7962240  22.7693700  21.3370950
  45.2525020  23.5798950  21.5631140  44.4450450  22.4516840  22.1689440
  40.6974020  13.1131350  21.8093470  40.5688650  13.1049250  22.7578390
  39.8736040  13.4514440  21.4584480  48.3726930  26.2832390  27.2840700
  49.0149160  25.5825550  27.3972870  48.8976280  27.0630830  27.1037590
  52.2182650  26.5681010  17.0079840  51.9920230  25.8511450  17.6004480
  51.8278850  26.3193450  16.1701590  50.1464550  27.0827290  30.4876760
  50.4820790  27.6693980  31.1654680  49.2264890  26.9520000  30.7174550
  37.9998680  30.5947870  17.7824300  38.3596320  31.1937210  17.1281570
  37.8591020  31.1407760  18.5559330  37.6967950  14.8722470  31.2700170
  36.9826470  15.0719390  31.8752780  38.1162990  14.0962040  31.6414970
  51.7998900  24.4852950  18.6694000  51.5120600  24.9465640  19.4571880
  52.5951070  24.0250720  18.9378220  44.0167300  27.9779070  18.5997970
  44.0077400  28.7108760  17.9842480  43.0965660  27.7310650  18.6924930
  39.6173940  23.1993960  19.3444730  39.0101890  23.9392860  19.3540030
  40.0923290  23.2893320  18.5182930  49.1906730  17.3644780  29.0201620
  49.5587550  16.5439990  29.3481190  48.3304930  17.4246670  29.4357270
  52.5568760  16.3201720  19.8289180  51.9281920  16.4247390  19.1147410
  52.0620680  16.5398500  20.6183060  47.0026900  28.0407310  17.2623160
  47.1038880  27.8371300  16.3325140  46.1028640  27.7865590  17.4670940
  44.5252790  18.5987670  21.2447060  43.8168940  19.0674010  21.6860670
  44.8097270  17.9409680  21.8792250  46.1508720  20.0184370  29.2439590
  46.6493970  20.4930190  29.9091440  46.2931670  19.0947890  29.4509620
  48.5568220  15.3238330  22.6842850  48.4336000  15.3424460  21.7352360
  49.5052780  15.3717270  22.8041250  45.6445010  30.5593630  21.9570830
  45.8986510  30.5215020  21.0350200  44.6957490  30.4326960  21.9499080
  42.7287810  16.9072750  18.6197770  43.5778340  17.3442900  18.5537960
  42.3619080  17.2193010  19.4469830  53.3575580  16.2352330  30.0867980
  52.8549180  16.9757730  30.4261790  54.1732240  16.6236330  29.7704770
  51.6497590  21.4785510  23.5329340  50.7087730  21.4935740  23.7077030
  51.9641660  20.6921470  23.9789640  41.6279230  23.1605110  17.0933300
  42.3942500  23.0486470  17.6558730  41.7053920  22.4643080  16.4410070
  40.3225990  20.5930180  17.7766190  40.4029580  19.6457690  17.8883590
  41.2145740  20.9237060  17.8826850  53.6523170  28.6494360  25.2083600
  53.7770590  29.4725530  25.6807410  54.5188730  28.4385090  24.8607750
  38.0086180  26.8099140  20.7542240  37.0825960  27.0520280  20.7447650
  38.4742610  27.6373400  20.6326990  44.2343010  29.9155880  16.7026300
  45.0271620  30.2044710  16.2508090  43.7147360  29.4848050  16.0238780
  48.9663610  26.0351510  34.0161720  48.3601770  26.0583110  33.2757470
  48.6617720  25.3034550  34.5528970  53.2873180  29.1426010  18.1263040
  53.0014690  28.7291150  17.3117220  53.0892730  30.0713720  18.0063560
  37.8496790  22.4145100  33.0122360  38.3535810  21.8352380  33.5838590
  37.1104210  22.6985330  33.5498730  44.7520410  25.1359290  16.5668650
  44.6471050  24.5211640  17.2930030  44.5844630  24.6125180  15.7831660
  44.9034730  23.8216090  32.5457880  44.1380400  24.3901090  32.4612550
  45.0850690  23.5292300  31.6526110  47.9923140  24.1979320  17.1710640
  47.4433240  24.6448620  17.8153380  48.6142400  23.6928570  17.6948310
  52.0458080  25.5521420  33.1032900  52.7867550  25.8897180  32.6000360
  51.2830760  25.7213480  32.5502670  39.8819870  20.5574690  33.9072430
  39.9225210  20.2588560  34.8157660  40.7365370  20.9582300  33.7479950
  43.6598260  23.1570240  19.0675940  44.0814680  22.9910110  19.9107330
  43.7849100  22.3470470  18.5731080  41.8225680  19.1366790  31.8746920
  41.2922140  18.6457740  31.2470260  42.4913750  19.5650990  31.3404850
  46.1725900  22.1807850  16.3153040  46.6931560  21.4656870  15.9494190
  46.8194300  22.8193720  16.6153550  50.7203740  23.6036250  31.6388110
  51.1344760  23.7581330  32.4878530  49.7854740  23.7291470  31.8013890
  51.1925910  20.9432410  33.6427260  51.7746680  20.1884730  33.5547740
  51.3687680  21.4739850  32.8658740  42.3097980  16.1029160  31.9544210
  42.2154850  15.4849910  31.2295080  41.7295370  16.8295450  31.7274120
  45.0759420  14.6602400  28.9871600  44.6276720  14.6826660  28.1417150
  44.4424620  14.2621420  29.5841900  45.4818970  23.5556730  29.6084040
  45.9007080  24.3989460  29.4360280  44.5627600  23.6928770  29.3790820
  47.8182870  21.2872910  30.9921880  47.9379080  20.6914050  31.7316720
  48.6776870  21.3242600  30.5723180  50.1570770  21.8410100  29.5684390
  49.6305990  22.3652720  28.9649530  50.5002110  22.4737490  30.1994120
  42.5557160  19.2303470  16.0134100  42.3546220  18.3670830  16.3747440
  42.3849210  19.1436830  15.0755700  44.5851640  17.8294260  32.2497700
  45.1751330  17.5210110  32.9375520  43.7671880  17.3574010  32.4057600
  49.4045070  17.4460070  32.4830720  48.7160590  16.7841610  32.4180710
  50.1251090  16.9998340  32.9279180  50.0345470  14.0411700  18.5420980
  50.3147760  13.1979600  18.8980400  49.2611200  14.2734810  19.0559730
  41.3539960  16.3304090  16.0011980  41.6565860  16.3371520  15.0931130
  42.0934550  15.9801950  16.4979640  44.5724890  15.2738710  16.9868180
  44.2246890  14.5962700  16.4070630  44.7737660  14.8128220  17.8011570
  46.7373930  30.2619460  18.6054780  47.6324720  30.6004430  18.6273540
  46.7691560  29.5398870  17.9779060  40.3770090  25.6346510  16.8341780
  40.8144960  26.1776180  17.4899360  40.8617820  24.8093460  16.8438120
  42.1877810  26.7544550  21.9464010  41.8873350  26.6309520  22.8467920
  42.0815300  25.8953140  21.5379740  53.7168280  28.7923130  31.3120980
  53.1170270  28.8515690  30.5684900  53.8462180  27.8528110  31.4417830
  54.9569730  26.5340950  16.6490690  54.1262690  26.6017600  17.1197920
  55.1341560  27.4245070  16.3457550  54.4126190  23.2788430  19.1524890
  55.1745100  23.8485080  19.2584580  54.4280560  22.7115630  19.9233200
  37.9130530  21.8026360  23.3832550  37.2579370  21.5338000  22.7392250
  38.7508480  21.6930840  22.9334530  55.4186160  24.1338530  23.9966820
  55.7894990  23.3505850  23.5902790  56.0588090  24.8227630  23.8184120
  52.4019920  25.5175110  29.4097140  51.5879760  25.9472270  29.6722930
  52.8094120  26.1293520  28.7966190  54.4645360  23.5722800  16.3097410
  54.7394200  24.4801680  16.1816630  54.2756100  23.5085330  17.2459400
  50.8620970  16.5967650  17.6051040  51.2805850  16.4098630  16.7647700
  50.5557030  15.7446700  17.9153970  54.3610700  21.5091790  21.3026840
  53.9854300  20.7419720  20.8708130  53.6313820  21.8914490  21.7901770
  38.9506460  22.1878930  27.9235890  39.3179500  22.1006330  28.8031910
  38.3817280  21.4245480  27.8242750  53.7510320  20.6563310  30.9366360
  53.5196410  20.4276060  30.0364310  54.0114870  21.5762860  30.8911250
  38.5022460  19.0988020  31.8294310  37.6078510  19.0654780  32.1688020
  39.0420010  19.2974810  32.5945560  52.1898390  15.8819740  33.7146060
  53.0668570  15.8903140  34.0980060  52.2019230  15.1450580  33.1038410
  37.1268610  19.0125290  19.3257880  36.2232690  19.2755490  19.1509540
  37.6109230  19.2836460  18.5457840  53.6361660  19.7349280  24.6034080
  54.1599140  19.2411930  23.9724250  54.2221080  19.8699640  25.3481650
  53.8151380  19.8189150  28.1253630  52.8654090  19.7852690  28.2398620
  53.9964390  20.7289260  27.8903400  39.6695820  18.0690830  17.2352260
  40.3787520  17.6474050  16.7499540  38.9535760  18.1366060  16.6035610
  39.3169980  14.1230160  16.2754910  40.0398110  14.6639100  16.5936130
  39.5894500  13.8493580  15.3996450  53.1261630  18.9922630  20.5426490
  53.6220750  18.7593500  21.3275370  52.9277700  18.1534470  20.1264130
  39.0062170  13.3736350  26.1777530  39.6538360  12.8233730  25.7372690
  39.4264010  13.6279500  26.9993340  54.5548790  17.6283580  23.0764170
  54.4448070  17.4739620  24.0146440  55.3156380  17.1004520  22.8339580
  52.9014510  13.5677710  29.5347170  53.5386730  14.1811850  29.9006360
  53.0489400  13.6038370  28.5896400  55.4439060  15.4591500  16.3170310
  56.3688370  15.3272680  16.1088600  55.4214850  15.5384320  17.2706760
  55.5177550  16.2302160  18.9427020  54.7229050  16.1647280  19.4719930
  55.7220830  17.1652800  18.9312370  52.4595970  30.2693710  22.9365410
  53.0555040  29.9478280  22.2599830  52.7174120  29.7965530  23.7278680
  38.7594170  13.5292020  28.9202850  38.4108990  13.9855840  29.6861030
  38.4281870  12.6349150  29.0025280  46.2718990  14.7203900  32.4422270
  46.2107880  15.3125730  33.1917680  47.2119370  14.6129860  32.2972530
  48.9093550  14.3773960  32.0814560  49.5233960  14.6953250  31.4195640
  49.4543110  13.8922550  32.7010420  55.3268730  30.2765590  29.4876400
  54.8327010  30.6734460  28.7703530  54.7182020  29.6514800  29.8813680
  39.4314810  13.0568220  32.1953620  39.9797800  12.8756270  31.4319730
  39.4970120  12.2662330  32.7309930  49.6501590  12.9406100  28.4083850
  48.7761430  13.2741210  28.2056780  49.5412340  12.4679280  29.2335720
  50.5573570  15.1476970  29.7925570  50.2286930  14.3328730  29.4127300
  51.5055870  15.1046780  29.6691260  53.0108180  30.9189010  26.7663140
  52.5511150  31.6704820  26.3921160  52.3820640  30.1995480  26.7077940
  47.3976410  13.8575940  27.3476760  46.6148200  14.3321440  27.6273520
  47.1039340  12.9530770  27.2389940  51.9497480  14.5599040  25.3925850
  52.3905570  14.5044140  24.5447450  51.6805070  15.4757050  25.4636030
  53.8136050  14.1914280  23.4034670  53.7524450  13.2475500  23.2565690
  54.5928080  14.2994370  23.9488130  38.1188800  30.3306640  22.3658620
  37.9510840  29.6977320  23.0640510  37.2523310  30.5366040  22.0152810
  38.7416820  14.1623420  19.8690480  39.4996180  14.2752300  19.2954510
  38.2793990  14.9992620  19.8233910  45.2830630  16.2762690  22.8592790
  44.4705140  15.9019580  22.5188670  45.7872270  15.5207770  23.1613980
  49.7855610  12.9405140  24.0975860  50.3884980  13.5125350  24.5724380
  49.0448600  13.5044580  23.8749760  52.9290210  13.3426700  19.3716140
  53.1240840  14.2410150  19.6383570  52.1420080  13.1113780  19.8649090
  39.7251500  29.0239870  19.8108760  39.1999120  29.4047900  19.1070720
  39.6496080  29.6490640  20.5318470  41.1141970  14.6887470  18.4092450
  41.6434730  13.9017270  18.2800400  41.7470290  15.3678660  18.6427980
  43.3079810  14.4262610  21.4637840  42.6782550  13.7249920  21.6307970
  42.7684950  15.1866740  21.2471000  54.4816820  30.5827410  21.1322700
  54.6569010  29.8965150  20.4883620  53.7838390  31.1074460  20.7399370
  43.4335370  13.7046590  33.8990330  43.1519640  14.2080190  33.1351150
  43.8155070  12.9068340  33.5332460  42.3244470  30.9722250  18.6858010
  43.0563290  30.6881530  18.1381900  42.5838140  30.7335530  19.5757390
  41.4859260  27.0886980  18.6904340  40.8568140  27.5572080  19.2390170
  41.6007090  26.2436200  19.1250530  50.0350830  13.1200170  34.4770800
  49.9216280  13.4394780  35.3722320  50.8520570  13.5212680  34.1808080
  48.9408980  21.1392640   4.8405540  48.8603030  20.2247250   4.5697250
  48.5273400  21.6359710   4.1345250  47.0727020  22.9171660   6.7214810
  46.2969120  22.4372100   7.0113380  47.7239950  22.2377310   6.5470970
  41.0892850  23.2291470   7.5990570  40.2577730  22.9740180   7.9987080
  41.6973830  23.3002240   8.3348490  51.0934450  27.3231850   5.5013940
  50.6315980  26.5519090   5.8301110  51.9060000  27.3497920   6.0066390
  41.0694110  27.2631560   7.7948590  41.3722150  26.3729300   7.6158810
  41.8137700  27.8201780   7.5670840  37.4617810  20.7899010   7.2672660
  38.0333920  20.0221210   7.2676300  37.4619350  21.0887770   6.3579270
  47.3197760  29.6089860   5.1217930  46.7009200  30.0647360   4.5512370
  48.1749540  29.7641320   4.7207630  46.5136010  25.5928850   6.7284970
  46.4444290  24.6518790   6.5674100  47.2755870  25.6830260   7.3007540
  38.7042680  16.1983370   9.0541590  38.5245520  15.3009120   9.3344350
  38.3022760  16.7455240   9.7288540  47.5441180  18.3999230   6.9553900
  47.9206000  17.5271110   6.8427570  47.4460690  18.7357930   6.0644340
  41.6746190  16.7724860   2.4171340  41.7812940  17.6728590   2.7240100
  40.7638550  16.7242830   2.1265990  51.3265300  15.8949670   3.8882240
  52.1474920  15.4046240   3.9307720  51.3599380  16.4847330   4.6414080
  39.3229350  18.6943870   7.6623930  40.0039460  18.9582240   8.2811330
  39.0077400  17.8544740   7.9961940  43.5153920  19.7411230   6.7496520
  44.0232140  20.2392200   7.3901540  44.0467160  18.9646430   6.5735880
  55.6164850  17.9116420  10.4525870  54.9117020  18.2998130   9.9340980
  55.8822770  18.6066710  11.0546800  41.7990020  14.3809790  11.0159940
  41.8008460  14.8982180  10.2105840  40.9694330  13.9039970  10.9929870
  48.1861110  24.4929100   2.5149840  47.5678380  24.9578550   1.9512560
  48.6984360  25.1856580   2.9319350  43.0492870  24.0204970   9.1933440
  42.7162250  24.6473890   9.8354510  43.2259550  24.5466850   8.4135110
  51.5626780  17.8350050   6.6609780  50.8582350  18.1234940   7.2412890
  51.9238940  18.6450160   6.3009340  41.4805350  16.0919750   9.0230390
  41.8222160  16.9361800   8.7284260  40.5421160  16.2403490   9.1395730
  42.2611970  25.9885770  11.0082620  42.8785970  26.6636850  10.7267070
  41.4005090  26.3973750  10.9170120  53.1789560  27.4525180   8.9237260
  52.4953080  28.1224290   8.9153930  53.7183850  27.6505830   8.1582120
  54.6313700  17.2804840   7.0518990  53.6838610  17.3143820   7.1834420
  54.9563690  18.0943790   7.4368350  45.1633240  13.5802020   5.3474980
  45.4708220  13.0248910   4.6310480  44.2333940  13.7146480   5.1647970
  50.7148300  29.2969310   7.6382440  50.7275460  28.8931600   6.7704700
  50.1623520  30.0716600   7.5343870  52.0093720  26.0185530   2.7272610
  51.8990050  25.0759860   2.8522030  52.0061970  26.3801170   3.6135370
  50.1133740  24.1999150   8.9665050  50.5302530  23.9859260   8.1318510
  50.8373560  24.4571940   9.5373670  47.5514000  21.6450850   2.0835100
  46.6243280  21.5788230   2.3123570  47.7038820  22.5830980   1.9690340
  54.0595840  22.5986370   9.0581290  53.2314470  22.6679460   8.5831420
  54.6546320  23.1840680   8.5897120  51.5811290  23.2071150   2.5870350
  50.9623710  22.8690700   1.9396650  51.5635740  22.5630910   3.2949540
  51.0237850  19.3855690  10.0036160  50.6109030  20.2109400  10.2576150
  50.2913800  18.8000730   9.8112520  43.1570640  22.1715590   4.8654830
  42.7527640  21.4592840   4.3700730  43.2433760  21.8268830   5.7542870
  43.6252340  25.8583150   7.0294040  43.3280630  25.2528620   6.3501820
  44.5752160  25.8960460   6.9183400  41.8699260  18.9458800   8.6453870
  42.4213850  19.0554140   7.8707120  42.3842770  19.3196400   9.3609100
  51.7137950  29.4315020  10.6917140  51.2368510  30.2387210  10.4989750
  51.0299740  28.7793350  10.8443350  42.7170770  25.5964840  13.6801840
  41.8199300  25.8204810  13.9275240  42.7423640  25.7199780  12.7313240
  41.5441990  22.4678160  12.2559210  41.4049760  23.3400960  12.6246610
  40.6623350  22.1250970  12.1107150  47.8671370  27.3854030   3.5624340
  48.3067280  28.1278360   3.1479730  47.8058260  27.6280600   4.4863300
  43.3422340  28.4099860  14.4644360  43.3137770  28.8142810  13.5972790
  43.1787310  27.4810220  14.3015960  39.8575270  21.0660570   2.3661480
  39.7372870  21.7922660   1.7542750  39.5476160  20.2963480   1.8889390
  55.2937160  29.1926960  15.7608530  55.7696880  29.6709850  16.4397610
  55.9144320  29.1244450  15.0354030  37.4960640  24.2375710   8.1730120
  37.5741060  24.3724480   7.2285840  38.1102320  23.5291600   8.3658240
  38.7408270  25.9375900   4.5836300  38.3336350  26.0790490   3.7289900
  39.6321280  25.6536060   4.3807510  54.6970410  26.3839810  12.9208540
  54.8233470  26.1451690  12.0025720  54.7391790  25.5524350  13.3930620
  48.5587150  30.0867810  11.4903350  49.0731820  29.9975820  12.2925780
  47.7156230  30.4327510  11.7831260  43.0129930  30.1521680   2.6958970
  42.8372410  29.2357220   2.4826770  42.1585670  30.5108970   2.9356770
  49.8017610  29.5073420   3.5533840  50.2574560  28.7262800   3.8672460
  50.1410130  30.2180240   4.0975020  54.5494420  18.4372270  13.8858280
  53.9338690  18.9451940  13.3573740  54.2290840  17.5370600  13.8284220
  37.5520160  25.2789880  10.7124580  37.7151200  24.8095240   9.8943950
  38.0172610  24.7713440  11.3773420  42.3238930  14.4095640   5.7485150
  41.8807080  15.1905180   5.4169670  42.8823920  14.7325530   6.4556090
  46.6108740  17.2764160  11.3520470  46.1488110  17.4847180  12.1640410
  46.2086850  16.4623510  11.0491140  51.6113250  18.4973110  12.4817130
  50.7606840  18.1978860  12.8026200  51.4515040  18.7415120  11.5700950
  48.7062960  19.9974860  14.5815920  49.0316370  19.1638610  14.2418150
  49.4943290  20.5203380  14.7294250  44.3614830  14.9542970   7.6074750
  44.6587160  15.8605800   7.5266770  44.9100390  14.4661750   6.9934320
  42.1153150  19.5329210   3.4766400  41.8894070  19.3166380   4.3813020
  41.3345680  19.9657670   3.1312370  44.5552360  20.4314790  14.1426670
  44.4595960  19.4909520  13.9927070  45.3984340  20.6529860  13.7474740
  47.9515780  18.1756120   4.1060330  48.3445350  18.4928320   3.2929020
  48.3132630  17.2968000   4.2204850  39.6862900  16.8428460  12.2960450
  39.2926290  17.6903670  12.5033230  38.9981300  16.2054830  12.4869090
  46.2607950  16.9263430  15.3657190  45.5706270  16.7335630  16.0003280
  47.0040250  17.2098070  15.8981490  36.9879950  14.7656920   6.3290530
  36.6993000  15.3359780   7.0415510  37.7325710  14.2861370   6.6921760
  48.5370920  20.7661870   8.2011110  47.8052040  21.2748680   8.5501210
  48.1395260  19.9491850   7.8999890  44.9748310  17.4416070   6.6063600
  44.9784370  17.0006020   5.7568140  45.8699430  17.7633400   6.7135420
  40.8250690  17.3242560   5.5657810  40.4850740  17.8017790   6.3224860
  40.0628010  16.8707680   5.2058910  48.9996830  16.2195550   7.6134050
  49.0169570  16.6704200   8.4575900  48.7512410  15.3201190   7.8267490
  52.4267580  13.6327730  13.4520430  52.7513350  12.9017390  13.9778410
  52.4624090  13.3141370  12.5501420  39.1259140  24.6541310  12.8720390
  38.7413930  24.0134980  13.4703350  39.4371330  25.3577430  13.4415120
  45.2756280  21.5017850   8.3529010  45.6426410  21.0276420   9.0990350
  45.0861340  22.3759420   8.6937350  38.1396770  16.2461540   4.4822480
  37.8543690  15.8817210   5.3201100  38.0775630  15.5142000   3.8685620
  43.0655650  20.5426490  10.6713220  42.7612720  21.4218470  10.8963580
  44.0202110  20.6026280  10.7070660  52.3525420  23.7452840   7.0606460
  53.0724540  24.2408130   6.6702570  52.1507240  23.0670730   6.4160330
  47.7344220  23.8161900  12.9475460  47.6681530  22.8957570  12.6933050
  47.1049360  23.9137340  13.6620100  41.6374840  24.4167860   4.9058880
  42.1553510  23.6136120   4.8515770  41.1858860  24.3547000   5.7475710
  39.1219380  21.3829230  11.8184580  38.7634320  22.0483080  12.4057920
  38.8273940  20.5512780  12.1897200  42.3232500  21.8413470  14.7024130
  42.0232640  21.9870650  13.8051950  43.0943740  21.2818760  14.6097520
  47.6660950  26.6382470  12.6979260  47.6805490  25.7063430  12.4798170
  46.9586050  26.7242230  13.3369030  53.8772160  23.2789810  12.0447840
  53.1520350  23.8718590  11.8477230  54.4047620  23.2713350  11.2461210
  49.4071750  25.0049980   5.5431690  49.7595570  24.4078110   4.8833060
  48.5234080  24.6794210   5.7139940  45.4935030  25.7647670   2.9502100
  46.1806160  26.3116880   3.3309690  44.7067450  26.3088400   2.9851710
  44.7962240  22.7693700   2.5627460  45.2525020  23.5798950   2.7887650
  44.4450450  22.4516840   3.3945950  47.0994850  28.2800040   9.7919760
  47.7437070  28.4859420  10.4693180  47.4624290  27.5188440   9.3390610
  40.6974020  13.1131350   3.0349980  40.5688650  13.1049250   3.9834900
  39.8736040  13.4514440   2.6840990  48.3726930  26.2832390   8.5097210
  49.0149160  25.5825550   8.6229380  48.8976280  27.0630830   8.3294100
  50.1464550  27.0827290  11.7133270  50.4820790  27.6693980  12.3911190
  49.2264890  26.9520000  11.9431060  37.6967950  14.8722470  12.4956680
  36.9826470  15.0719390  13.1009290  38.1162990  14.0962040  12.8671480
  37.9840540  28.8602730  13.4823210  38.0931660  27.9197470  13.3418600
  37.3321100  29.1257480  12.8336940  45.9753130  27.1318620  14.8821330
  45.6550000  26.4127860  15.4267020  45.3011490  27.8073690  14.9557390
  49.1906730  17.3644780  10.2458130  49.5587550  16.5439990  10.5737700
  48.3304930  17.4246670  10.6613780  44.5252790  18.5987670   2.4703570
  43.8168940  19.0674010   2.9117180  44.8097270  17.9409680   3.1048760
  46.1508720  20.0184370  10.4696100  46.6493970  20.4930190  11.1347950
  46.2931670  19.0947890  10.6766130  48.5568220  15.3238330   3.9099360
  48.4336000  15.3424460   2.9608870  49.5052780  15.3717270   4.0297760
  45.6445010  30.5593630   3.1827340  45.8986510  30.5215020   2.2606710
  44.6957490  30.4326960   3.1755590  53.3575580  16.2352330  11.3124490
  52.8549180  16.9757730  11.6518300  54.1732240  16.6236330  10.9961280
  51.6497590  21.4785510   4.7585850  50.7087730  21.4935740   4.9333540
  51.9641660  20.6921470   5.2046150  53.6523170  28.6494360   6.4340110
  53.7770590  29.4725530   6.9063920  54.5188730  28.4385090   6.0864260
  41.1240700  30.7425570   6.1057240  41.8603180  30.1941030   6.3765810
  41.5081620  31.6081580   5.9663230  38.0086180  26.8099140   1.9798750
  37.0825960  27.0520280   1.9704160  38.4742610  27.6373400   1.8583500
  40.1298980  29.9271640  15.2942820  40.9311710  30.2483690  15.7078220
  39.6150800  29.5667220  16.0162730  48.9663610  26.0351510  15.2418230
  48.3601770  26.0583110  14.5013980  48.6617720  25.3034550  15.7785480
  50.3963980  29.7631800  13.8527640  51.3485730  29.6789820  13.8027880
  50.2492200  30.4273510  14.5261430  37.8496790  22.4145100  14.2378870
  38.3535810  21.8352380  14.8095100  37.1104210  22.6985330  14.7755240
  44.9034730  23.8216090  13.7714390  44.1380400  24.3901090  13.6869060
  45.0850690  23.5292300  12.8782620  52.0458080  25.5521420  14.3289410
  52.7867550  25.8897180  13.8256870  51.2830760  25.7213480  13.7759180
  39.8819870  20.5574690  15.1328940  39.9225210  20.2588560  16.0414170
  40.7365370  20.9582300  14.9736460  41.8225680  19.1366790  13.1003430
  41.2922140  18.6457740  12.4726770  42.4913750  19.5650990  12.5661360
  50.7203740  23.6036250  12.8644620  51.1344760  23.7581330  13.7135040
  49.7854740  23.7291470  13.0270400  51.1925910  20.9432410  14.8683770
  51.7746680  20.1884730  14.7804250  51.3687680  21.4739850  14.0915250
  42.3097980  16.1029160  13.1800720  42.2154850  15.4849910  12.4551590
  41.7295370  16.8295450  12.9530630  45.0759420  14.6602400  10.2128110
  44.6276720  14.6826660   9.3673660  44.4424620  14.2621420  10.8098410
  45.4818970  23.5556730  10.8340550  45.9007080  24.3989460  10.6616790
  44.5627600  23.6928770  10.6047330  47.8182870  21.2872910  12.2178390
  47.9379080  20.6914050  12.9573230  48.6776870  21.3242600  11.7979690
  50.1570770  21.8410100  10.7940900  49.6305990  22.3652720  10.1906040
  50.5002110  22.4737490  11.4250630  43.3326390  29.8609740  11.9498280
  42.7947480  30.5855800  11.6306980  43.5860350  29.3840080  11.1595620
  44.5851640  17.8294260  13.4754210  45.1751330  17.5210110  14.1632030
  43.7671880  17.3574010  13.6314110  49.4045070  17.4460070  13.7087230
  48.7160590  16.7841610  13.6437220  50.1251090  16.9998340  14.1535690
  46.1888600  31.0960950  12.2084930  46.1147300  31.9996090  12.5157300
  45.2867440  30.7772850  12.1807000  37.5915890  28.4235540   5.5118550
  37.9218900  27.5556600   5.2797190  38.0206890  28.6294060   6.3423510
  42.1877810  26.7544550   3.1720520  41.8873350  26.6309520   4.0724430
  42.0815300  25.8953140   2.7636250  38.0806100  29.2906130   8.2500180
  37.6437090  29.4706930   9.0824330  38.6483780  30.0480750   8.1081900
  53.7168280  28.7923130  12.5377490  53.1170270  28.8515690  11.7941410
  53.8462180  27.8528110  12.6674340  37.9130530  21.8026360   4.6089060
  37.2579370  21.5338000   3.9648760  38.7508480  21.6930840   4.1591040
  55.4186160  24.1338530   5.2223330  55.7894990  23.3505850   4.8159300
  56.0588090  24.8227630   5.0440630  52.4019920  25.5175110  10.6353650
  51.5879760  25.9472270  10.8979440  52.8094120  26.1293520  10.0222700
  54.3610700  21.5091790   2.5283350  53.9854300  20.7419720   2.0964640
  53.6313820  21.8914490   3.0158280  38.9506460  22.1878930   9.1492400
  39.3179500  22.1006330  10.0288420  38.3817280  21.4245480   9.0499260
  53.7510320  20.6563310  12.1622870  53.5196410  20.4276060  11.2620820
  54.0114870  21.5762860  12.1167760  38.5022460  19.0988020  13.0550820
  37.6078510  19.0654780  13.3944530  39.0420010  19.2974810  13.8202070
  52.1898390  15.8819740  14.9402570  53.0668570  15.8903140  15.3236570
  52.2019230  15.1450580  14.3294920  53.6361660  19.7349280   5.8290590
  54.1599140  19.2411930   5.1980760  54.2221080  19.8699640   6.5738160
  53.8151380  19.8189150   9.3510140  52.8654090  19.7852690   9.4655130
  53.9964390  20.7289260   9.1159910  53.1261630  18.9922630   1.7683000
  53.6220750  18.7593500   2.5531880  52.9277700  18.1534470   1.3520640
  39.0062170  13.3736350   7.4034040  39.6538360  12.8233730   6.9629200
  39.4264010  13.6279500   8.2249850  54.5548790  17.6283580   4.3020680
  54.4448070  17.4739620   5.2402950  55.3156380  17.1004520   4.0596090
  52.9014510  13.5677710  10.7603680  53.5386730  14.1811850  11.1262870
  53.0489400  13.6038370   9.8152910  52.4595970  30.2693710   4.1621920
  53.0555040  29.9478280   3.4856340  52.7174120  29.7965530   4.9535190
  38.7594170  13.5292020  10.1459360  38.4108990  13.9855840  10.9117540
  38.4281870  12.6349150  10.2281790  40.3658540  26.7011620  14.3112550
  40.3228170  26.3304530  15.1927010  40.4969550  27.6389190  14.4514370
  44.0664570  28.2571210   9.9122270  43.8255930  28.5245770   9.0252790
  45.0067210  28.4276940   9.9673130  46.2718990  14.7203900  13.6678780
  46.2107880  15.3125730  14.4174190  47.2119370  14.6129860  13.5229040
  48.9093550  14.3773960  13.3071070  49.5233960  14.6953250  12.6452150
  49.4543110  13.8922550  13.9266930  55.3268730  30.2765590  10.7132910
  54.8327010  30.6734460   9.9960040  54.7182020  29.6514800  11.1070190
  39.4314810  13.0568220  13.4210130  39.9797800  12.8756270  12.6576240
  39.4970120  12.2662330  13.9566440  40.2046570  29.6473870  11.4310330
  39.6106890  29.5158570  12.1700370  40.1970410  28.8112010  10.9652430
  49.6501590  12.9406100   9.6340360  48.7761430  13.2741210   9.4313290
  49.5412340  12.4679280  10.4592230  50.5573570  15.1476970  11.0182080
  50.2286930  14.3328730  10.6383810  51.5055870  15.1046780  10.8947770
  53.0108180  30.9189010   7.9919650  52.5511150  31.6704820   7.6177670
  52.3820640  30.1995480   7.9334450  39.8358800  27.0132250  10.3818370
  39.1092860  26.3937540  10.3144320  39.8967950  27.4072860   9.5116450
  43.4403900  29.2277250   7.1667780  43.9568920  28.6164610   6.6416040
  44.0901280  29.7306030   7.6578790  46.1799400  30.1185740   7.9936760
  46.4677210  29.8640040   7.1169770  46.6922620  29.5663100   8.5842330
  47.3976410  13.8575940   8.5733270  46.6148200  14.3321440   8.8530030
  47.1039340  12.9530770   8.4646450  51.9497480  14.5599040   6.6182360
  52.3905570  14.5044140   5.7703960  51.6805070  15.4757050   6.6892540
  53.8136050  14.1914280   4.6291180  53.7524450  13.2475500   4.4822200
  54.5928080  14.2994370   5.1744640  38.1188800  30.3306640   3.5915130
  37.9510840  29.6977320   4.2897020  37.2523310  30.5366040   3.2409320
  45.2830630  16.2762690   4.0849300  44.4705140  15.9019580   3.7445180
  45.7872270  15.5207770   4.3870490  49.7855610  12.9405140   5.3232370
  50.3884980  13.5125350   5.7980890  49.0448600  13.5044580   5.1006270
  43.3079810  14.4262610   2.6894350  42.6782550  13.7249920   2.8564480
  42.7684950  15.1866740   2.4727510  46.2471760  31.0401840  15.3604960
  47.1739070  30.8046110  15.4040920  46.2322190  31.8673840  14.8790990
  54.4816820  30.5827410   2.3579210  54.6569010  29.8965150   1.7140130
  53.7838390  31.1074460   1.9655880  43.4335370  13.7046590  15.1246840
  43.1519640  14.2080190  14.3607660  43.8155070  12.9068340  14.7588970
  50.0350830  13.1200170  15.7027310  49.9216280  13.4394780  16.5978830
  50.8520570  13.5212680  15.4064590  52.8149320  30.2671700  15.1846000
  53.6074640  29.7720930  14.9771960  53.1082470  30.9461840  15.7921610
  47.0727020   4.1428170  63.0445280  46.2969120   3.6628610  63.3343850
  47.7239950   3.4633820  62.8701440  41.0892850   4.4547980  63.9221040
  40.2577730   4.1996690  64.3217550  41.6973830   4.5258750  64.6578960
  51.0934450   8.5488360  61.8244410  50.6315980   7.7775600  62.1531580
  51.9060000   8.5754430  62.3296860  41.0694110   8.4888070  64.1179060
  41.3722150   7.5985810  63.9389280  41.8137700   9.0458290  63.8901310
  47.3197760  10.8346370  61.4448400  46.7009200  11.2903870  60.8742840
  48.1749540  10.9897830  61.0438100  46.5136010   6.8185360  63.0515440
  46.4444290   5.8775300  62.8904570  47.2755870   6.9086770  63.6238010
  48.1861110   5.7185610  58.8380310  47.5678380   6.1835060  58.2743030
  48.6984360   6.4113090  59.2549820  43.0492870   5.2461480  65.5163910
  42.7162250   5.8730400  66.1584980  43.2259550   5.7723360  64.7365580
  42.2611970   7.2142280  67.3313090  42.8785970   7.8893360  67.0497540
  41.4005090   7.6230260  67.2400590  37.5544310   6.4042140  56.2119940
  37.1772290   6.8929240  55.4804840  37.8117380   7.0767420  56.8426470
  53.1789560   8.6781690  65.2467730  52.4953080   9.3480800  65.2384400
  53.7183850   8.8762340  64.4812590  50.7148300  10.5225820  63.9612910
  50.7275460  10.1188110  63.0935170  50.1623520  11.2973110  63.8574340
  52.0093720   7.2442040  59.0503080  51.8990050   6.3016370  59.1752500
  52.0061970   7.6057680  59.9365840  50.1133740   5.4255660  65.2895520
  50.5302530   5.2115770  64.4548980  50.8373560   5.6828450  65.8604140
  47.5514000   2.8707360  58.4065570  46.6243280   2.8044740  58.6354040
  47.7038820   3.8087490  58.2920810  54.0595840   3.8242880  65.3811760
  53.2314470   3.8935970  64.9061890  54.6546320   4.4097190  64.9127590
  51.5811290   4.4327660  58.9100820  50.9623710   4.0947210  58.2627120
  51.5635740   3.7887420  59.6180010  43.1570640   3.3972100  61.1885300
  42.7527640   2.6849350  60.6931200  43.2433760   3.0525340  62.0773340
  43.6252340   7.0839660  63.3524510  43.3280630   6.4785130  62.6732290
  44.5752160   7.1216970  63.2413870  51.7137950  10.6571530  67.0147610
  51.2368510  11.4643720  66.8220220  51.0299740  10.0049860  67.1673820
  49.7575990   3.6714470  55.9173570  50.1969270   2.8336900  55.7711390
  50.4704410   4.3043870  56.0037710  47.8671370   8.6110540  59.8854810
  48.3067280   9.3534870  59.4710200  47.8058260   8.8537110  60.8093770
  39.8575270   2.2917080  58.6891950  39.7372870   3.0179170  58.0773220
  39.5476160   1.5219990  58.2119860  37.4960640   5.4632220  64.4960590
  37.5741060   5.5980990  63.5516310  38.1102320   4.7548110  64.6888710
  38.7408270   7.1632410  60.9066770  38.3336350   7.3047000  60.0520370
  39.6321280   6.8792570  60.7037980  50.5341550  11.5979660  57.2417820
  50.3742690  11.3082600  58.1399650  50.3688260  10.8219790  56.7063050
  43.0129930  11.3778190  59.0189440  42.8372410  10.4613730  58.8057240
  42.1585670  11.7365480  59.2587240  50.2367680   9.1067220  55.8015820
  49.5432840   9.1044510  55.1418100  50.9790540   8.6826540  55.3709990
  49.8017610  10.7329930  59.8764310  50.2574560   9.9519310  60.1902930
  50.1410130  11.4436750  60.4205490  37.5520160   6.5046390  67.0355050
  37.7151200   6.0351750  66.2174420  38.0172610   5.9969950  67.7003890
  44.0489960   1.9785800  55.3184130  43.4806860   1.5304050  54.6920040
  44.7578960   2.3378580  54.7849280  45.2756280   2.7274360  64.6759480
  45.6426410   2.2532930  65.4220820  45.0861340   3.6015930  65.0167820
  43.0655650   1.7683000  66.9943690  42.7612720   2.6474980  67.2194050
  44.0202110   1.8282790  67.0301130  41.5937440   5.9743990  57.5910540
  40.8199700   5.4341610  57.4309260  42.3232070   5.4550600  57.2528300
  52.3525420   4.9709350  63.3836930  53.0724540   5.4664640  62.9933040
  52.1507240   4.2927240  62.7390800  41.6374840   5.6424370  61.2289350
  42.1553510   4.8392630  61.1746240  41.1858860   5.5803510  62.0706180
  46.5244340   6.9090650  56.5016650  46.8660040   7.6532880  56.0059970
  45.6957050   7.2221770  56.8641480  52.7998020   2.0478800  55.2908340
  52.7161740   2.4793020  54.4404780  53.5192210   2.5077150  55.7235160
  53.8285270   8.9021060  58.0190470  53.1861430   8.2476680  58.2934190
  53.4415930   9.3076150  57.2431140  49.4071750   6.2306490  61.8662160
  49.7595570   5.6334620  61.2063530  48.5234080   5.9050720  62.0370410
  45.4935030   6.9904180  59.2732570  46.1806160   7.5373390  59.6540160
  44.7067450   7.5344910  59.3082180  37.6327430   2.6077000  54.7649650
  38.5022280   2.8901800  55.0485570  37.1417750   3.4212870  54.6498460
  44.7962240   3.9950210  58.8857930  45.2525020   4.8055460  59.1118120
  44.4450450   3.6773350  59.7176420  47.0994850   9.5056550  66.1150230
  47.7437070   9.7115930  66.7923650  47.4624290   8.7444950  65.6621080
  48.3726930   7.5088900  64.8327680  49.0149160   6.8082060  64.9459850
  48.8976280   8.2887340  64.6524570  52.2182650   7.7937520  54.5566820
  51.9920230   7.0767960  55.1491460  51.8278850   7.5449960  53.7188570
  37.9998680  11.8204380  55.3311280  38.3596320  12.4193720  54.6768550
  37.8591020  12.3664270  56.1046310  51.7998900   5.7109460  56.2180980
  51.5120600   6.1722150  57.0058860  52.5951070   5.2507230  56.4865200
  44.0167300   9.2035580  56.1484950  44.0077400   9.9365270  55.5329460
  43.0965660   8.9567160  56.2411910  39.6173940   4.4250470  56.8931710
  39.0101890   5.1649370  56.9027010  40.0923290   4.5149830  56.0669910
  47.0026900   9.2663820  54.8110140  47.1038880   9.0627810  53.8812120
  46.1028640   9.0122100  55.0157920  45.6445010  11.7850140  59.5057810
  45.8986510  11.7471530  58.5837180  44.6957490  11.6583470  59.4986060
  51.6497590   2.7042020  61.0816320  50.7087730   2.7192250  61.2564010
  51.9641660   1.9177980  61.5276620  41.6279230   4.3861620  54.6420280
  42.3942500   4.2742980  55.2045710  41.7053920   3.6899590  53.9897050
  53.6523170   9.8750870  62.7570580  53.7770590  10.6982040  63.2294390
  54.5188730   9.6641600  62.4094730  41.1240700  11.9682080  62.4287710
  41.8603180  11.4197540  62.6996280  41.5081620  12.8338090  62.2893700
  38.0086180   8.0355650  58.3029220  37.0825960   8.2776790  58.2934630
  38.4742610   8.8629910  58.1813970  44.2343010  11.1412390  54.2513280
  45.0271620  11.4301220  53.7995070  43.7147360  10.7104560  53.5725760
  53.2873180  10.3682520  55.6750020  53.0014690   9.9547660  54.8604200
  53.0892730  11.2970230  55.5550540  44.7520410   6.3615800  54.1155630
  44.6471050   5.7468150  54.8417010  44.5844630   5.8381690  53.3318640
  47.9923140   5.4235830  54.7197620  47.4433240   5.8705130  55.3640360
  48.6142400   4.9185080  55.2435290  43.6598260   4.3826750  56.6162920
  44.0814680   4.2166620  57.4594310  43.7849100   3.5726980  56.1218060
  46.1725900   3.4064360  53.8640020  46.6931560   2.6913380  53.4981170
  46.8194300   4.0450230  54.1640530  45.4818970   4.7813240  67.1571020
  45.9007080   5.6245970  66.9847260  44.5627600   4.9185280  66.9277800
  50.1570770   3.0666610  67.1171370  49.6305990   3.5909230  66.5136510
  50.5002110   3.6994000  67.7481100  46.7373930  11.4875970  56.1541760
  47.6324720  11.8260940  56.1760520  46.7691560  10.7655380  55.5266040
  40.3770090   6.8603020  54.3828760  40.8144960   7.4032690  55.0386340
  40.8617820   6.0349970  54.3925100  37.5915890   9.6492050  61.8349020
  37.9218900   8.7813110  61.6027660  38.0206890   9.8550570  62.6653980
  42.1877810   7.9801060  59.4950990  41.8873350   7.8566030  60.3954900
  42.0815300   7.1209650  59.0866720  38.0806100  10.5162640  64.5730650
  37.6437090  10.6963440  65.4054800  38.6483780  11.2737260  64.4312370
  54.9569730   7.7597460  54.1977670  54.1262690   7.8274110  54.6684900
  55.1341560   8.6501580  53.8944530  54.4126190   4.5044940  56.7011870
  55.1745100   5.0741590  56.8071560  54.4280560   3.9372140  57.4720180
  37.9130530   3.0282870  60.9319530  37.2579370   2.7594510  60.2879230
  38.7508480   2.9187350  60.4821510  55.4186160   5.3595040  61.5453800
  55.7894990   4.5762360  61.1389770  56.0588090   6.0484140  61.3671100
  52.4019920   6.7431620  66.9584120  51.5879760   7.1728780  67.2209910
  52.8094120   7.3550030  66.3453170  54.4645360   4.7979310  53.8584390
  54.7394200   5.7058190  53.7303610  54.2756100   4.7341840  54.7946380
  54.3610700   2.7348300  58.8513820  53.9854300   1.9676230  58.4195110
  53.6313820   3.1171000  59.3388750  38.9506460   3.4135440  65.4722870
  39.3179500   3.3262840  66.3518890  38.3817280   2.6501990  65.3729730
  52.4595970  11.4950220  60.4852390  53.0555040  11.1734790  59.8086810
  52.7174120  11.0222040  61.2765660  44.0664570   9.4827720  66.2352740
  43.8255930   9.7502280  65.3483260  45.0067210   9.6533450  66.2903600
  55.3268730  11.5022100  67.0363380  54.8327010  11.8990970  66.3190510
  54.7182020  10.8771310  67.4300660  53.0108180  12.1445520  64.3150120
  52.5511150  12.8961330  63.9408140  52.3820640  11.4251990  64.2564920
  39.8358800   8.2388760  66.7048840  39.1092860   7.6194050  66.6374790
  39.8967950   8.6329370  65.8346920  43.4403900  10.4533760  63.4898250
  43.9568920   9.8421120  62.9646510  44.0901280  10.9562540  63.9809260
  46.1799400  11.3442250  64.3167230  46.4677210  11.0896550  63.4400240
  46.6922620  10.7919610  64.9072800  38.1188800  11.5563150  59.9145600
  37.9510840  10.9233830  60.6127490  37.2523310  11.7622550  59.5639790
  39.7251500  10.2496380  57.3595740  39.1999120  10.6304410  56.6557700
  39.6496080  10.8747150  58.0805450  54.4816820  11.8083920  58.6809680
  54.6569010  11.1221660  58.0370600  53.7838390  12.3330970  58.2886350
  42.3244470  12.1978760  56.2344990  43.0563290  11.9138040  55.6868880
  42.5838140  11.9592040  57.1244370  41.4859260   8.3143490  56.2391320
  40.8568140   8.7828590  56.7877150  41.6007090   7.4692710  56.6737510
  47.0727020   4.1428170  44.2701790  46.2969120   3.6628610  44.5600360
  47.7239950   3.4633820  44.0957950  41.0892850   4.4547980  45.1477550
  40.2577730   4.1996690  45.5474060  41.6973830   4.5258750  45.8835470
  51.0934450   8.5488360  43.0500920  50.6315980   7.7775600  43.3788090
  51.9060000   8.5754430  43.5553370  41.0694110   8.4888070  45.3435570
  41.3722150   7.5985810  45.1645790  41.8137700   9.0458290  45.1157820
  47.3197760  10.8346370  42.6704910  46.7009200  11.2903870  42.0999350
  48.1749540  10.9897830  42.2694610  46.5136010   6.8185360  44.2771950
  46.4444290   5.8775300  44.1161080  47.2755870   6.9086770  44.8494520
  48.1861110   5.7185610  40.0636820  47.5678380   6.1835060  39.4999540
  48.6984360   6.4113090  40.4806330  43.0492870   5.2461480  46.7420420
  42.7162250   5.8730400  47.3841490  43.2259550   5.7723360  45.9622090
  42.2611970   7.2142280  48.5569600  42.8785970   7.8893360  48.2754050
  41.4005090   7.6230260  48.4657100  37.5544310   6.4042140  37.4376450
  37.1772290   6.8929240  36.7061350  37.8117380   7.0767420  38.0682980
  53.1789560   8.6781690  46.4724240  52.4953080   9.3480800  46.4640910
  53.7183850   8.8762340  45.7069100  50.7148300  10.5225820  45.1869420
  50.7275460  10.1188110  44.3191680  50.1623520  11.2973110  45.0830850
  52.0093720   7.2442040  40.2759590  51.8990050   6.3016370  40.4009010
  52.0061970   7.6057680  41.1622350  50.1133740   5.4255660  46.5152030
  50.5302530   5.2115770  45.6805490  50.8373560   5.6828450  47.0860650
  47.5514000   2.8707360  39.6322080  46.6243280   2.8044740  39.8610550
  47.7038820   3.8087490  39.5177320  54.0595840   3.8242880  46.6068270
  53.2314470   3.8935970  46.1318400  54.6546320   4.4097190  46.1384100
  51.5811290   4.4327660  40.1357330  50.9623710   4.0947210  39.4883630
  51.5635740   3.7887420  40.8436520  43.1570640   3.3972100  42.4141810
  42.7527640   2.6849350  41.9187710  43.2433760   3.0525340  43.3029850
  43.6252340   7.0839660  44.5781020  43.3280630   6.4785130  43.8988800
  44.5752160   7.1216970  44.4670380  51.7137950  10.6571530  48.2404120
  51.2368510  11.4643720  48.0476730  51.0299740  10.0049860  48.3930330
  42.7170770   6.8221350  51.2288820  41.8199300   7.0461320  51.4762220
  42.7423640   6.9456290  50.2800220  49.7575990   3.6714470  37.1430080
  50.1969270   2.8336900  36.9967900  50.4704410   4.3043870  37.2294220
  41.5441990   3.6934670  49.8046190  41.4049760   4.5657470  50.1733590
  40.6623350   3.3507480  49.6594130  47.8671370   8.6110540  41.1111320
  48.3067280   9.3534870  40.6966710  47.8058260   8.8537110  42.0350280
  43.3422340   9.6356370  52.0131340  43.3137770  10.0399320  51.1459770
  43.1787310   8.7066730  51.8502940  39.8575270   2.2917080  39.9148460
  39.7372870   3.0179170  39.3029730  39.5476160   1.5219990  39.4376370
  55.2937160  10.4183470  53.3095510  55.7696880  10.8966360  53.9884590
  55.9144320  10.3500960  52.5841010  37.4960640   5.4632220  45.7217100
  37.5741060   5.5980990  44.7772820  38.1102320   4.7548110  45.9145220
  38.7408270   7.1632410  42.1323280  38.3336350   7.3047000  41.2776880
  39.6321280   6.8792570  41.9294490  54.6970410   7.6096320  50.4695520
  54.8233470   7.3708200  49.5512700  54.7391790   6.7780860  50.9417600
  48.5587150  11.3124320  49.0390330  49.0731820  11.2232330  49.8412760
  47.7156230  11.6584020  49.3318240  50.5341550  11.5979660  38.4674330
  50.3742690  11.3082600  39.3656160  50.3688260  10.8219790  37.9319560
  43.0129930  11.3778190  40.2445950  42.8372410  10.4613730  40.0313750
  42.1585670  11.7365480  40.4843750  50.2367680   9.1067220  37.0272330
  49.5432840   9.1044510  36.3674610  50.9790540   8.6826540  36.5966500
  49.8017610  10.7329930  41.1020820  50.2574560   9.9519310  41.4159440
  50.1410130  11.4436750  41.6462000  37.5520160   6.5046390  48.2611560
  37.7151200   6.0351750  47.4430930  38.0172610   5.9969950  48.9260400
  44.0489960   1.9785800  36.5440640  43.4806860   1.5304050  35.9176550
  44.7578960   2.3378580  36.0105790  39.1259140   5.8797820  50.4207370
  38.7413930   5.2391490  51.0190330  39.4371330   6.5833940  50.9902100
  45.2756280   2.7274360  45.9015990  45.6426410   2.2532930  46.6477330
  45.0861340   3.6015930  46.2424330  43.0655650   1.7683000  48.2200200
  42.7612720   2.6474980  48.4450560  44.0202110   1.8282790  48.2557640
  41.5937440   5.9743990  38.8167050  40.8199700   5.4341610  38.6565770
  42.3232070   5.4550600  38.4784810  52.3525420   4.9709350  44.6093440
  53.0724540   5.4664640  44.2189550  52.1507240   4.2927240  43.9647310
  47.7344220   5.0418410  50.4962440  47.6681530   4.1214080  50.2420030
  47.1049360   5.1393850  51.2107080  41.6374840   5.6424370  42.4545860
  42.1553510   4.8392630  42.4002750  41.1858860   5.5803510  43.2962690
  46.5244340   6.9090650  37.7273160  46.8660040   7.6532880  37.2316480
  45.6957050   7.2221770  38.0897990  39.1219380   2.6085740  49.3671560
  38.7634320   3.2739590  49.9544900  38.8273940   1.7769290  49.7384180
  42.3232500   3.0669980  52.2511110  42.0232640   3.2127160  51.3538930
  43.0943740   2.5075270  52.1584500  47.6660950   7.8638980  50.2466240
  47.6805490   6.9319940  50.0285150  46.9586050   7.9498740  50.8856010
  52.7998020   2.0478800  36.5164850  52.7161740   2.4793020  35.6661290
  53.5192210   2.5077150  36.9491670  53.8772160   4.5046320  49.5934820
  53.1520350   5.0975100  49.3964210  54.4047620   4.4969860  48.7948190
  53.8285270   8.9021060  39.2446980  53.1861430   8.2476680  39.5190700
  53.4415930   9.3076150  38.4687650  49.4071750   6.2306490  43.0918670
  49.7595570   5.6334620  42.4320040  48.5234080   5.9050720  43.2626920
  45.4935030   6.9904180  40.4989080  46.1806160   7.5373390  40.8796670
  44.7067450   7.5344910  40.5338690  37.6327430   2.6077000  35.9906160
  38.5022280   2.8901800  36.2742080  37.1417750   3.4212870  35.8754970
  44.7962240   3.9950210  40.1114440  45.2525020   4.8055460  40.3374630
  44.4450450   3.6773350  40.9432930  47.0994850   9.5056550  47.3406740
  47.7437070   9.7115930  48.0180160  47.4624290   8.7444950  46.8877590
  48.3726930   7.5088900  46.0584190  49.0149160   6.8082060  46.1716360
  48.8976280   8.2887340  45.8781080  52.2182650   7.7937520  35.7823330
  51.9920230   7.0767960  36.3747970  51.8278850   7.5449960  34.9445080
  50.1464550   8.3083800  49.2620250  50.4820790   8.8950490  49.9398170
  49.2264890   8.1776510  49.4918040  37.9998680  11.8204380  36.5567790
  38.3596320  12.4193720  35.9025060  37.8591020  12.3664270  37.3302820
  51.7998900   5.7109460  37.4437490  51.5120600   6.1722150  38.2315370
  52.5951070   5.2507230  37.7121710  37.9840540  10.0859240  51.0310190
  38.0931660   9.1453980  50.8905580  37.3321100  10.3513990  50.3823920
  45.9753130   8.3575130  52.4308310  45.6550000   7.6384370  52.9754000
  45.3011490   9.0330200  52.5044370  44.0167300   9.2035580  37.3741460
  44.0077400   9.9365270  36.7585970  43.0965660   8.9567160  37.4668420
  39.6173940   4.4250470  38.1188220  39.0101890   5.1649370  38.1283520
  40.0923290   4.5149830  37.2926420  47.0026900   9.2663820  36.0366650
  47.1038880   9.0627810  35.1068630  46.1028640   9.0122100  36.2414430
  45.6445010  11.7850140  40.7314320  45.8986510  11.7471530  39.8093690
  44.6957490  11.6583470  40.7242570  51.6497590   2.7042020  42.3072830
  50.7087730   2.7192250  42.4820520  51.9641660   1.9177980  42.7533130
  41.6279230   4.3861620  35.8676790  42.3942500   4.2742980  36.4302220
  41.7053920   3.6899590  35.2153560  53.6523170   9.8750870  43.9827090
  53.7770590  10.6982040  44.4550900  54.5188730   9.6641600  43.6351240
  41.1240700  11.9682080  43.6544220  41.8603180  11.4197540  43.9252790
  41.5081620  12.8338090  43.5150210  38.0086180   8.0355650  39.5285730
  37.0825960   8.2776790  39.5191140  38.4742610   8.8629910  39.4070480
  40.1298980  11.1528150  52.8429800  40.9311710  11.4740200  53.2565200
  39.6150800  10.7923730  53.5649710  44.2343010  11.1412390  35.4769790
  45.0271620  11.4301220  35.0251580  43.7147360  10.7104560  34.7982270
  48.9663610   7.2608020  52.7905210  48.3601770   7.2839620  52.0500960
  48.6617720   6.5291060  53.3272460  50.3963980  10.9888310  51.4014620
  51.3485730  10.9046330  51.3514860  50.2492200  11.6530020  52.0748410
  53.2873180  10.3682520  36.9006530  53.0014690   9.9547660  36.0860710
  53.0892730  11.2970230  36.7807050  37.8496790   3.6401610  51.7865850
  38.3535810   3.0608890  52.3582080  37.1104210   3.9241840  52.3242220
  44.7520410   6.3615800  35.3412140  44.6471050   5.7468150  36.0673520
  44.5844630   5.8381690  34.5575150  44.9034730   5.0472600  51.3201370
  44.1380400   5.6157600  51.2356040  45.0850690   4.7548810  50.4269600
  47.9923140   5.4235830  35.9454130  47.4433240   5.8705130  36.5896870
  48.6142400   4.9185080  36.4691800  52.0458080   6.7777930  51.8776390
  52.7867550   7.1153690  51.3743850  51.2830760   6.9469990  51.3246160
  39.8819870   1.7831200  52.6815920  39.9225210   1.4845070  53.5901150
  40.7365370   2.1838810  52.5223440  43.6598260   4.3826750  37.8419430
  44.0814680   4.2166620  38.6850820  43.7849100   3.5726980  37.3474570
  46.1725900   3.4064360  35.0896530  46.6931560   2.6913380  34.7237680
  46.8194300   4.0450230  35.3897040  50.7203740   4.8292760  50.4131600
  51.1344760   4.9837840  51.2622020  49.7854740   4.9547980  50.5757380
  45.4818970   4.7813240  48.3827530  45.9007080   5.6245970  48.2103770
  44.5627600   4.9185280  48.1534310  47.8182870   2.5129420  49.7665370
  47.9379080   1.9170560  50.5060210  48.6776870   2.5499110  49.3466670
  50.1570770   3.0666610  48.3427880  49.6305990   3.5909230  47.7393020
  50.5002110   3.6994000  48.9737610  43.3326390  11.0866250  49.4985260
  42.7947480  11.8112310  49.1793960  43.5860350  10.6096590  48.7082600
  46.1888600  12.3217460  49.7571910  46.1147300  13.2252600  50.0644280
  45.2867440  12.0029360  49.7293980  46.7373930  11.4875970  37.3798270
  47.6324720  11.8260940  37.4017030  46.7691560  10.7655380  36.7522550
  40.3770090   6.8603020  35.6085270  40.8144960   7.4032690  36.2642850
  40.8617820   6.0349970  35.6181610  37.5915890   9.6492050  43.0605530
  37.9218900   8.7813110  42.8284170  38.0206890   9.8550570  43.8910490
  42.1877810   7.9801060  40.7207500  41.8873350   7.8566030  41.6211410
  42.0815300   7.1209650  40.3123230  38.0806100  10.5162640  45.7987160
  37.6437090  10.6963440  46.6311310  38.6483780  11.2737260  45.6568880
  53.7168280  10.0179640  50.0864470  53.1170270  10.0772200  49.3428390
  53.8462180   9.0784620  50.2161320  54.9569730   7.7597460  35.4234180
  54.1262690   7.8274110  35.8941410  55.1341560   8.6501580  35.1201040
  54.4126190   4.5044940  37.9268380  55.1745100   5.0741590  38.0328070
  54.4280560   3.9372140  38.6976690  37.9130530   3.0282870  42.1576040
  37.2579370   2.7594510  41.5135740  38.7508480   2.9187350  41.7078020
  55.4186160   5.3595040  42.7710310  55.7894990   4.5762360  42.3646280
  56.0588090   6.0484140  42.5927610  52.4019920   6.7431620  48.1840630
  51.5879760   7.1728780  48.4466420  52.8094120   7.3550030  47.5709680
  54.4645360   4.7979310  35.0840900  54.7394200   5.7058190  34.9560120
  54.2756100   4.7341840  36.0202890  54.3610700   2.7348300  40.0770330
  53.9854300   1.9676230  39.6451620  53.6313820   3.1171000  40.5645260
  38.9506460   3.4135440  46.6979380  39.3179500   3.3262840  47.5775400
  38.3817280   2.6501990  46.5986240  53.7510320   1.8819820  49.7109850
  53.5196410   1.6532570  48.8107800  54.0114870   2.8019370  49.6654740
  52.4595970  11.4950220  41.7108900  53.0555040  11.1734790  41.0343320
  52.7174120  11.0222040  42.5022170  40.3658540   7.9268130  51.8599530
  40.3228170   7.5561040  52.7413990  40.4969550   8.8645700  52.0001350
  44.0664570   9.4827720  47.4609250  43.8255930   9.7502280  46.5739770
  45.0067210   9.6533450  47.5160110  55.3268730  11.5022100  48.2619890
  54.8327010  11.8990970  47.5447020  54.7182020  10.8771310  48.6557170
  40.2046570  10.8730380  48.9797310  39.6106890  10.7415080  49.7187350
  40.1970410  10.0368520  48.5139410  53.0108180  12.1445520  45.5406630
  52.5511150  12.8961330  45.1664650  52.3820640  11.4251990  45.4821430
  39.8358800   8.2388760  47.9305350  39.1092860   7.6194050  47.8631300
  39.8967950   8.6329370  47.0603430  43.4403900  10.4533760  44.7154760
  43.9568920   9.8421120  44.1903020  44.0901280  10.9562540  45.2065770
  46.1799400  11.3442250  45.5423740  46.4677210  11.0896550  44.6656750
  46.6922620  10.7919610  46.1329310  38.1188800  11.5563150  41.1402110
  37.9510840  10.9233830  41.8384000  37.2523310  11.7622550  40.7896300
  39.7251500  10.2496380  38.5852250  39.1999120  10.6304410  37.8814210
  39.6496080  10.8747150  39.3061960  46.2471760  12.2658350  52.9091940
  47.1739070  12.0302620  52.9527900  46.2322190  13.0930350  52.4277970
  54.4816820  11.8083920  39.9066190  54.6569010  11.1221660  39.2627110
  53.7838390  12.3330970  39.5142860  42.3244470  12.1978760  37.4601500
  43.0563290  11.9138040  36.9125390  42.5838140  11.9592040  38.3500880
  41.4859260   8.3143490  37.4647830  40.8568140   8.7828590  38.0133660
  41.6007090   7.4692710  37.8994020  52.8149320  11.4928210  52.7332980
  53.6074640  10.9977440  52.5258940  53.1082470  12.1718350  53.3408590
  47.0727020   4.1428170  25.4958300  46.2969120   3.6628610  25.7856870
  47.7239950   3.4633820  25.3214460  41.0892850   4.4547980  26.3734060
  40.2577730   4.1996690  26.7730570  41.6973830   4.5258750  27.1091980
  51.0934450   8.5488360  24.2757430  50.6315980   7.7775600  24.6044600
  51.9060000   8.5754430  24.7809880  41.0694110   8.4888070  26.5692080
  41.3722150   7.5985810  26.3902300  41.8137700   9.0458290  26.3414330
  47.3197760  10.8346370  23.8961420  46.7009200  11.2903870  23.3255860
  48.1749540  10.9897830  23.4951120  46.5136010   6.8185360  25.5028460
  46.4444290   5.8775300  25.3417590  47.2755870   6.9086770  26.0751030
  48.1861110   5.7185610  21.2893330  47.5678380   6.1835060  20.7256050
  48.6984360   6.4113090  21.7062840  43.0492870   5.2461480  27.9676930
  42.7162250   5.8730400  28.6098000  43.2259550   5.7723360  27.1878600
  42.2611970   7.2142280  29.7826110  42.8785970   7.8893360  29.5010560
  41.4005090   7.6230260  29.6913610  37.5544310   6.4042140  18.6632960
  37.1772290   6.8929240  17.9317860  37.8117380   7.0767420  19.2939490
  53.1789560   8.6781690  27.6980750  52.4953080   9.3480800  27.6897420
  53.7183850   8.8762340  26.9325610  50.7148300  10.5225820  26.4125930
  50.7275460  10.1188110  25.5448190  50.1623520  11.2973110  26.3087360
  52.0093720   7.2442040  21.5016100  51.8990050   6.3016370  21.6265520
  52.0061970   7.6057680  22.3878860  50.1133740   5.4255660  27.7408540
  50.5302530   5.2115770  26.9062000  50.8373560   5.6828450  28.3117160
  47.5514000   2.8707360  20.8578590  46.6243280   2.8044740  21.0867060
  47.7038820   3.8087490  20.7433830  54.0595840   3.8242880  27.8324780
  53.2314470   3.8935970  27.3574910  54.6546320   4.4097190  27.3640610
  51.5811290   4.4327660  21.3613840  50.9623710   4.0947210  20.7140140
  51.5635740   3.7887420  22.0693030  43.1570640   3.3972100  23.6398320
  42.7527640   2.6849350  23.1444220  43.2433760   3.0525340  24.5286360
  43.6252340   7.0839660  25.8037530  43.3280630   6.4785130  25.1245310
  44.5752160   7.1216970  25.6926890  51.7137950  10.6571530  29.4660630
  51.2368510  11.4643720  29.2733240  51.0299740  10.0049860  29.6186840
  42.7170770   6.8221350  32.4545330  41.8199300   7.0461320  32.7018730
  42.7423640   6.9456290  31.5056730  49.7575990   3.6714470  18.3686590
  50.1969270   2.8336900  18.2224410  50.4704410   4.3043870  18.4550730
  41.5441990   3.6934670  31.0302700  41.4049760   4.5657470  31.3990100
  40.6623350   3.3507480  30.8850640  47.8671370   8.6110540  22.3367830
  48.3067280   9.3534870  21.9223220  47.8058260   8.8537110  23.2606790
  43.3422340   9.6356370  33.2387850  43.3137770  10.0399320  32.3716280
  43.1787310   8.7066730  33.0759450  39.8575270   2.2917080  21.1404970
  39.7372870   3.0179170  20.5286240  39.5476160   1.5219990  20.6632880
  55.2937160  10.4183470  34.5352020  55.7696880  10.8966360  35.2141100
  55.9144320  10.3500960  33.8097520  37.4960640   5.4632220  26.9473610
  37.5741060   5.5980990  26.0029330  38.1102320   4.7548110  27.1401730
  38.7408270   7.1632410  23.3579790  38.3336350   7.3047000  22.5033390
  39.6321280   6.8792570  23.1551000  54.6970410   7.6096320  31.6952030
  54.8233470   7.3708200  30.7769210  54.7391790   6.7780860  32.1674110
  48.5587150  11.3124320  30.2646840  49.0731820  11.2232330  31.0669270
  47.7156230  11.6584020  30.5574750  50.5341550  11.5979660  19.6930840
  50.3742690  11.3082600  20.5912670  50.3688260  10.8219790  19.1576070
  43.0129930  11.3778190  21.4702460  42.8372410  10.4613730  21.2570260
  42.1585670  11.7365480  21.7100260  50.2367680   9.1067220  18.2528840
  49.5432840   9.1044510  17.5931120  50.9790540   8.6826540  17.8223010
  49.8017610  10.7329930  22.3277330  50.2574560   9.9519310  22.6415950
  50.1410130  11.4436750  22.8718510  37.5520160   6.5046390  29.4868070
  37.7151200   6.0351750  28.6687440  38.0172610   5.9969950  30.1516910
  44.0489960   1.9785800  17.7697150  43.4806860   1.5304050  17.1433060
  44.7578960   2.3378580  17.2362300  39.1259140   5.8797820  31.6463880
  38.7413930   5.2391490  32.2446840  39.4371330   6.5833940  32.2158610
  45.2756280   2.7274360  27.1272500  45.6426410   2.2532930  27.8733840
  45.0861340   3.6015930  27.4680840  43.0655650   1.7683000  29.4456710
  42.7612720   2.6474980  29.6707070  44.0202110   1.8282790  29.4814150
  41.5937440   5.9743990  20.0423560  40.8199700   5.4341610  19.8822280
  42.3232070   5.4550600  19.7041320  52.3525420   4.9709350  25.8349950
  53.0724540   5.4664640  25.4446060  52.1507240   4.2927240  25.1903820
  47.7344220   5.0418410  31.7218950  47.6681530   4.1214080  31.4676540
  47.1049360   5.1393850  32.4363590  41.6374840   5.6424370  23.6802370
  42.1553510   4.8392630  23.6259260  41.1858860   5.5803510  24.5219200
  46.5244340   6.9090650  18.9529670  46.8660040   7.6532880  18.4572990
  45.6957050   7.2221770  19.3154500  39.1219380   2.6085740  30.5928070
  38.7634320   3.2739590  31.1801410  38.8273940   1.7769290  30.9640690
  42.3232500   3.0669980  33.4767620  42.0232640   3.2127160  32.5795440
  43.0943740   2.5075270  33.3841010  47.6660950   7.8638980  31.4722750
  47.6805490   6.9319940  31.2541660  46.9586050   7.9498740  32.1112520
  52.7998020   2.0478800  17.7421360  52.7161740   2.4793020  16.8917800
  53.5192210   2.5077150  18.1748180  53.8772160   4.5046320  30.8191330
  53.1520350   5.0975100  30.6220720  54.4047620   4.4969860  30.0204700
  53.8285270   8.9021060  20.4703490  53.1861430   8.2476680  20.7447210
  53.4415930   9.3076150  19.6944160  49.4071750   6.2306490  24.3175180
  49.7595570   5.6334620  23.6576550  48.5234080   5.9050720  24.4883430
  45.4935030   6.9904180  21.7245590  46.1806160   7.5373390  22.1053180
  44.7067450   7.5344910  21.7595200  37.6327430   2.6077000  17.2162670
  38.5022280   2.8901800  17.4998590  37.1417750   3.4212870  17.1011480
  44.7962240   3.9950210  21.3370950  45.2525020   4.8055460  21.5631140
  44.4450450   3.6773350  22.1689440  47.0994850   9.5056550  28.5663250
  47.7437070   9.7115930  29.2436670  47.4624290   8.7444950  28.1134100
  48.3726930   7.5088900  27.2840700  49.0149160   6.8082060  27.3972870
  48.8976280   8.2887340  27.1037590  52.2182650   7.7937520  17.0079840
  51.9920230   7.0767960  17.6004480  51.8278850   7.5449960  16.1701590
  50.1464550   8.3083800  30.4876760  50.4820790   8.8950490  31.1654680
  49.2264890   8.1776510  30.7174550  37.9998680  11.8204380  17.7824300
  38.3596320  12.4193720  17.1281570  37.8591020  12.3664270  18.5559330
  51.7998900   5.7109460  18.6694000  51.5120600   6.1722150  19.4571880
  52.5951070   5.2507230  18.9378220  37.9840540  10.0859240  32.2566700
  38.0931660   9.1453980  32.1162090  37.3321100  10.3513990  31.6080430
  45.9753130   8.3575130  33.6564820  45.6550000   7.6384370  34.2010510
  45.3011490   9.0330200  33.7300880  44.0167300   9.2035580  18.5997970
  44.0077400   9.9365270  17.9842480  43.0965660   8.9567160  18.6924930
  39.6173940   4.4250470  19.3444730  39.0101890   5.1649370  19.3540030
  40.0923290   4.5149830  18.5182930  47.0026900   9.2663820  17.2623160
  47.1038880   9.0627810  16.3325140  46.1028640   9.0122100  17.4670940
  45.6445010  11.7850140  21.9570830  45.8986510  11.7471530  21.0350200
  44.6957490  11.6583470  21.9499080  51.6497590   2.7042020  23.5329340
  50.7087730   2.7192250  23.7077030  51.9641660   1.9177980  23.9789640
  41.6279230   4.3861620  17.0933300  42.3942500   4.2742980  17.6558730
  41.7053920   3.6899590  16.4410070  53.6523170   9.8750870  25.2083600
  53.7770590  10.6982040  25.6807410  54.5188730   9.6641600  24.8607750
  41.1240700  11.9682080  24.8800730  41.8603180  11.4197540  25.1509300
  41.5081620  12.8338090  24.7406720  38.0086180   8.0355650  20.7542240
  37.0825960   8.2776790  20.7447650  38.4742610   8.8629910  20.6326990
  40.1298980  11.1528150  34.0686310  40.9311710  11.4740200  34.4821710
  39.6150800  10.7923730  34.7906220  44.2343010  11.1412390  16.7026300
  45.0271620  11.4301220  16.2508090  43.7147360  10.7104560  16.0238780
  48.9663610   7.2608020  34.0161720  48.3601770   7.2839620  33.2757470
  48.6617720   6.5291060  34.5528970  50.3963980  10.9888310  32.6271130
  51.3485730  10.9046330  32.5771370  50.2492200  11.6530020  33.3004920
  53.2873180  10.3682520  18.1263040  53.0014690   9.9547660  17.3117220
  53.0892730  11.2970230  18.0063560  37.8496790   3.6401610  33.0122360
  38.3535810   3.0608890  33.5838590  37.1104210   3.9241840  33.5498730
  44.7520410   6.3615800  16.5668650  44.6471050   5.7468150  17.2930030
  44.5844630   5.8381690  15.7831660  44.9034730   5.0472600  32.5457880
  44.1380400   5.6157600  32.4612550  45.0850690   4.7548810  31.6526110
  47.9923140   5.4235830  17.1710640  47.4433240   5.8705130  17.8153380
  48.6142400   4.9185080  17.6948310  52.0458080   6.7777930  33.1032900
  52.7867550   7.1153690  32.6000360  51.2830760   6.9469990  32.5502670
  39.8819870   1.7831200  33.9072430  39.9225210   1.4845070  34.8157660
  40.7365370   2.1838810  33.7479950  43.6598260   4.3826750  19.0675940
  44.0814680   4.2166620  19.9107330  43.7849100   3.5726980  18.5731080
  46.1725900   3.4064360  16.3153040  46.6931560   2.6913380  15.9494190
  46.8194300   4.0450230  16.6153550  50.7203740   4.8292760  31.6388110
  51.1344760   4.9837840  32.4878530  49.7854740   4.9547980  31.8013890
  45.4818970   4.7813240  29.6084040  45.9007080   5.6245970  29.4360280
  44.5627600   4.9185280  29.3790820  47.8182870   2.5129420  30.9921880
  47.9379080   1.9170560  31.7316720  48.6776870   2.5499110  30.5723180
  50.1570770   3.0666610  29.5684390  49.6305990   3.5909230  28.9649530
  50.5002110   3.6994000  30.1994120  43.3326390  11.0866250  30.7241770
  42.7947480  11.8112310  30.4050470  43.5860350  10.6096590  29.9339110
  46.1888600  12.3217460  30.9828420  46.1147300  13.2252600  31.2900790
  45.2867440  12.0029360  30.9550490  46.7373930  11.4875970  18.6054780
  47.6324720  11.8260940  18.6273540  46.7691560  10.7655380  17.9779060
  40.3770090   6.8603020  16.8341780  40.8144960   7.4032690  17.4899360
  40.8617820   6.0349970  16.8438120  37.5915890   9.6492050  24.2862040
  37.9218900   8.7813110  24.0540680  38.0206890   9.8550570  25.1167000
  42.1877810   7.9801060  21.9464010  41.8873350   7.8566030  22.8467920
  42.0815300   7.1209650  21.5379740  38.0806100  10.5162640  27.0243670
  37.6437090  10.6963440  27.8567820  38.6483780  11.2737260  26.8825390
  53.7168280  10.0179640  31.3120980  53.1170270  10.0772200  30.5684900
  53.8462180   9.0784620  31.4417830  54.9569730   7.7597460  16.6490690
  54.1262690   7.8274110  17.1197920  55.1341560   8.6501580  16.3457550
  54.4126190   4.5044940  19.1524890  55.1745100   5.0741590  19.2584580
  54.4280560   3.9372140  19.9233200  37.9130530   3.0282870  23.3832550
  37.2579370   2.7594510  22.7392250  38.7508480   2.9187350  22.9334530
  55.4186160   5.3595040  23.9966820  55.7894990   4.5762360  23.5902790
  56.0588090   6.0484140  23.8184120  52.4019920   6.7431620  29.4097140
  51.5879760   7.1728780  29.6722930  52.8094120   7.3550030  28.7966190
  54.4645360   4.7979310  16.3097410  54.7394200   5.7058190  16.1816630
  54.2756100   4.7341840  17.2459400  54.3610700   2.7348300  21.3026840
  53.9854300   1.9676230  20.8708130  53.6313820   3.1171000  21.7901770
  38.9506460   3.4135440  27.9235890  39.3179500   3.3262840  28.8031910
  38.3817280   2.6501990  27.8242750  53.7510320   1.8819820  30.9366360
  53.5196410   1.6532570  30.0364310  54.0114870   2.8019370  30.8911250
  52.4595970  11.4950220  22.9365410  53.0555040  11.1734790  22.2599830
  52.7174120  11.0222040  23.7278680  40.3658540   7.9268130  33.0856040
  40.3228170   7.5561040  33.9670500  40.4969550   8.8645700  33.2257860
  44.0664570   9.4827720  28.6865760  43.8255930   9.7502280  27.7996280
  45.0067210   9.6533450  28.7416620  55.3268730  11.5022100  29.4876400
  54.8327010  11.8990970  28.7703530  54.7182020  10.8771310  29.8813680
  40.2046570  10.8730380  30.2053820  39.6106890  10.7415080  30.9443860
  40.1970410  10.0368520  29.7395920  53.0108180  12.1445520  26.7663140
  52.5511150  12.8961330  26.3921160  52.3820640  11.4251990  26.7077940
  39.8358800   8.2388760  29.1561860  39.1092860   7.6194050  29.0887810
  39.8967950   8.6329370  28.2859940  43.4403900  10.4533760  25.9411270
  43.9568920   9.8421120  25.4159530  44.0901280  10.9562540  26.4322280
  46.1799400  11.3442250  26.7680250  46.4677210  11.0896550  25.8913260
  46.6922620  10.7919610  27.3585820  38.1188800  11.5563150  22.3658620
  37.9510840  10.9233830  23.0640510  37.2523310  11.7622550  22.0152810
  39.7251500  10.2496380  19.8108760  39.1999120  10.6304410  19.1070720
  39.6496080  10.8747150  20.5318470  46.2471760  12.2658350  34.1348450
  47.1739070  12.0302620  34.1784410  46.2322190  13.0930350  33.6534480
  54.4816820  11.8083920  21.1322700  54.6569010  11.1221660  20.4883620
  53.7838390  12.3330970  20.7399370  42.3244470  12.1978760  18.6858010
  43.0563290  11.9138040  18.1381900  42.5838140  11.9592040  19.5757390
  41.4859260   8.3143490  18.6904340  40.8568140   8.7828590  19.2390170
  41.6007090   7.4692710  19.1250530  52.8149320  11.4928210  33.9589490
  53.6074640  10.9977440  33.7515450  53.1082470  12.1718350  34.5665100
  47.0727020   4.1428170   6.7214810  46.2969120   3.6628610   7.0113380
  47.7239950   3.4633820   6.5470970  41.0892850   4.4547980   7.5990570
  40.2577730   4.1996690   7.9987080  41.6973830   4.5258750   8.3348490
  51.0934450   8.5488360   5.5013940  50.6315980   7.7775600   5.8301110
  51.9060000   8.5754430   6.0066390  41.0694110   8.4888070   7.7948590
  41.3722150   7.5985810   7.6158810  41.8137700   9.0458290   7.5670840
  47.3197760  10.8346370   5.1217930  46.7009200  11.2903870   4.5512370
  48.1749540  10.9897830   4.7207630  46.5136010   6.8185360   6.7284970
  46.4444290   5.8775300   6.5674100  47.2755870   6.9086770   7.3007540
  48.1861110   5.7185610   2.5149840  47.5678380   6.1835060   1.9512560
  48.6984360   6.4113090   2.9319350  43.0492870   5.2461480   9.1933440
  42.7162250   5.8730400   9.8354510  43.2259550   5.7723360   8.4135110
  42.2611970   7.2142280  11.0082620  42.8785970   7.8893360  10.7267070
  41.4005090   7.6230260  10.9170120  53.1789560   8.6781690   8.9237260
  52.4953080   9.3480800   8.9153930  53.7183850   8.8762340   8.1582120
  50.7148300  10.5225820   7.6382440  50.7275460  10.1188110   6.7704700
  50.1623520  11.2973110   7.5343870  52.0093720   7.2442040   2.7272610
  51.8990050   6.3016370   2.8522030  52.0061970   7.6057680   3.6135370
  50.1133740   5.4255660   8.9665050  50.5302530   5.2115770   8.1318510
  50.8373560   5.6828450   9.5373670  47.5514000   2.8707360   2.0835100
  46.6243280   2.8044740   2.3123570  47.7038820   3.8087490   1.9690340
  54.0595840   3.8242880   9.0581290  53.2314470   3.8935970   8.5831420
  54.6546320   4.4097190   8.5897120  51.5811290   4.4327660   2.5870350
  50.9623710   4.0947210   1.9396650  51.5635740   3.7887420   3.2949540
  43.1570640   3.3972100   4.8654830  42.7527640   2.6849350   4.3700730
  43.2433760   3.0525340   5.7542870  43.6252340   7.0839660   7.0294040
  43.3280630   6.4785130   6.3501820  44.5752160   7.1216970   6.9183400
  51.7137950  10.6571530  10.6917140  51.2368510  11.4643720  10.4989750
  51.0299740  10.0049860  10.8443350  42.7170770   6.8221350  13.6801840
  41.8199300   7.0461320  13.9275240  42.7423640   6.9456290  12.7313240
  41.5441990   3.6934670  12.2559210  41.4049760   4.5657470  12.6246610
  40.6623350   3.3507480  12.1107150  47.8671370   8.6110540   3.5624340
  48.3067280   9.3534870   3.1479730  47.8058260   8.8537110   4.4863300
  43.3422340   9.6356370  14.4644360  43.3137770  10.0399320  13.5972790
  43.1787310   8.7066730  14.3015960  39.8575270   2.2917080   2.3661480
  39.7372870   3.0179170   1.7542750  39.5476160   1.5219990   1.8889390
  55.2937160  10.4183470  15.7608530  55.7696880  10.8966360  16.4397610
  55.9144320  10.3500960  15.0354030  37.4960640   5.4632220   8.1730120
  37.5741060   5.5980990   7.2285840  38.1102320   4.7548110   8.3658240
  38.7408270   7.1632410   4.5836300  38.3336350   7.3047000   3.7289900
  39.6321280   6.8792570   4.3807510  54.6970410   7.6096320  12.9208540
  54.8233470   7.3708200  12.0025720  54.7391790   6.7780860  13.3930620
  48.5587150  11.3124320  11.4903350  49.0731820  11.2232330  12.2925780
  47.7156230  11.6584020  11.7831260  43.0129930  11.3778190   2.6958970
  42.8372410  10.4613730   2.4826770  42.1585670  11.7365480   2.9356770
  49.8017610  10.7329930   3.5533840  50.2574560   9.9519310   3.8672460
  50.1410130  11.4436750   4.0975020  37.5520160   6.5046390  10.7124580
  37.7151200   6.0351750   9.8943950  38.0172610   5.9969950  11.3773420
  39.1259140   5.8797820  12.8720390  38.7413930   5.2391490  13.4703350
  39.4371330   6.5833940  13.4415120  45.2756280   2.7274360   8.3529010
  45.6426410   2.2532930   9.0990350  45.0861340   3.6015930   8.6937350
  43.0655650   1.7683000  10.6713220  42.7612720   2.6474980  10.8963580
  44.0202110   1.8282790  10.7070660  52.3525420   4.9709350   7.0606460
  53.0724540   5.4664640   6.6702570  52.1507240   4.2927240   6.4160330
  47.7344220   5.0418410  12.9475460  47.6681530   4.1214080  12.6933050
  47.1049360   5.1393850  13.6620100  41.6374840   5.6424370   4.9058880
  42.1553510   4.8392630   4.8515770  41.1858860   5.5803510   5.7475710
  39.1219380   2.6085740  11.8184580  38.7634320   3.2739590  12.4057920
  38.8273940   1.7769290  12.1897200  42.3232500   3.0669980  14.7024130
  42.0232640   3.2127160  13.8051950  43.0943740   2.5075270  14.6097520
  47.6660950   7.8638980  12.6979260  47.6805490   6.9319940  12.4798170
  46.9586050   7.9498740  13.3369030  53.8772160   4.5046320  12.0447840
  53.1520350   5.0975100  11.8477230  54.4047620   4.4969860  11.2461210
  49.4071750   6.2306490   5.5431690  49.7595570   5.6334620   4.8833060
  48.5234080   5.9050720   5.7139940  45.4935030   6.9904180   2.9502100
  46.1806160   7.5373390   3.3309690  44.7067450   7.5344910   2.9851710
  44.7962240   3.9950210   2.5627460  45.2525020   4.8055460   2.7887650
  44.4450450   3.6773350   3.3945950  47.0994850   9.5056550   9.7919760
  47.7437070   9.7115930  10.4693180  47.4624290   8.7444950   9.3390610
  48.3726930   7.5088900   8.5097210  49.0149160   6.8082060   8.6229380
  48.8976280   8.2887340   8.3294100  50.1464550   8.3083800  11.7133270
  50.4820790   8.8950490  12.3911190  49.2264890   8.1776510  11.9431060
  37.9840540  10.0859240  13.4823210  38.0931660   9.1453980  13.3418600
  37.3321100  10.3513990  12.8336940  45.9753130   8.3575130  14.8821330
  45.6550000   7.6384370  15.4267020  45.3011490   9.0330200  14.9557390
  45.6445010  11.7850140   3.1827340  45.8986510  11.7471530   2.2606710
  44.6957490  11.6583470   3.1755590  51.6497590   2.7042020   4.7585850
  50.7087730   2.7192250   4.9333540  51.9641660   1.9177980   5.2046150
  53.6523170   9.8750870   6.4340110  53.7770590  10.6982040   6.9063920
  54.5188730   9.6641600   6.0864260  41.1240700  11.9682080   6.1057240
  41.8603180  11.4197540   6.3765810  41.5081620  12.8338090   5.9663230
  38.0086180   8.0355650   1.9798750  37.0825960   8.2776790   1.9704160
  38.4742610   8.8629910   1.8583500  40.1298980  11.1528150  15.2942820
  40.9311710  11.4740200  15.7078220  39.6150800  10.7923730  16.0162730
  48.9663610   7.2608020  15.2418230  48.3601770   7.2839620  14.5013980
  48.6617720   6.5291060  15.7785480  50.3963980  10.9888310  13.8527640
  51.3485730  10.9046330  13.8027880  50.2492200  11.6530020  14.5261430
  37.8496790   3.6401610  14.2378870  38.3535810   3.0608890  14.8095100
  37.1104210   3.9241840  14.7755240  44.9034730   5.0472600  13.7714390
  44.1380400   5.6157600  13.6869060  45.0850690   4.7548810  12.8782620
  52.0458080   6.7777930  14.3289410  52.7867550   7.1153690  13.8256870
  51.2830760   6.9469990  13.7759180  39.8819870   1.7831200  15.1328940
  39.9225210   1.4845070  16.0414170  40.7365370   2.1838810  14.9736460
  50.7203740   4.8292760  12.8644620  51.1344760   4.9837840  13.7135040
  49.7854740   4.9547980  13.0270400  45.4818970   4.7813240  10.8340550
  45.9007080   5.6245970  10.6616790  44.5627600   4.9185280  10.6047330
  47.8182870   2.5129420  12.2178390  47.9379080   1.9170560  12.9573230
  48.6776870   2.5499110  11.7979690  50.1570770   3.0666610  10.7940900
  49.6305990   3.5909230  10.1906040  50.5002110   3.6994000  11.4250630
  43.3326390  11.0866250  11.9498280  42.7947480  11.8112310  11.6306980
  43.5860350  10.6096590  11.1595620  46.1888600  12.3217460  12.2084930
  46.1147300  13.2252600  12.5157300  45.2867440  12.0029360  12.1807000
  37.5915890   9.6492050   5.5118550  37.9218900   8.7813110   5.2797190
  38.0206890   9.8550570   6.3423510  42.1877810   7.9801060   3.1720520
  41.8873350   7.8566030   4.0724430  42.0815300   7.1209650   2.7636250
  38.0806100  10.5162640   8.2500180  37.6437090  10.6963440   9.0824330
  38.6483780  11.2737260   8.1081900  53.7168280  10.0179640  12.5377490
  53.1170270  10.0772200  11.7941410  53.8462180   9.0784620  12.6674340
  37.9130530   3.0282870   4.6089060  37.2579370   2.7594510   3.9648760
  38.7508480   2.9187350   4.1591040  55.4186160   5.3595040   5.2223330
  55.7894990   4.5762360   4.8159300  56.0588090   6.0484140   5.0440630
  52.4019920   6.7431620  10.6353650  51.5879760   7.1728780  10.8979440
  52.8094120   7.3550030  10.0222700  54.3610700   2.7348300   2.5283350
  53.9854300   1.9676230   2.0964640  53.6313820   3.1171000   3.0158280
  38.9506460   3.4135440   9.1492400  39.3179500   3.3262840  10.0288420
  38.3817280   2.6501990   9.0499260  53.7510320   1.8819820  12.1622870
  53.5196410   1.6532570  11.2620820  54.0114870   2.8019370  12.1167760
  52.4595970  11.4950220   4.1621920  53.0555040  11.1734790   3.4856340
  52.7174120  11.0222040   4.9535190  40.3658540   7.9268130  14.3112550
  40.3228170   7.5561040  15.1927010  40.4969550   8.8645700  14.4514370
  44.0664570   9.4827720   9.9122270  43.8255930   9.7502280   9.0252790
  45.0067210   9.6533450   9.9673130  55.3268730  11.5022100  10.7132910
  54.8327010  11.8990970   9.9960040  54.7182020  10.8771310  11.1070190
  40.2046570  10.8730380  11.4310330  39.6106890  10.7415080  12.1700370
  40.1970410  10.0368520  10.9652430  53.0108180  12.1445520   7.9919650
  52.5511150  12.8961330   7.6177670  52.3820640  11.4251990   7.9334450
  39.8358800   8.2388760  10.3818370  39.1092860   7.6194050  10.3144320
  39.8967950   8.6329370   9.5116450  43.4403900  10.4533760   7.1667780
  43.9568920   9.8421120   6.6416040  44.0901280  10.9562540   7.6578790
  46.1799400  11.3442250   7.9936760  46.4677210  11.0896550   7.1169770
  46.6922620  10.7919610   8.5842330  38.1188800  11.5563150   3.5915130
  37.9510840  10.9233830   4.2897020  37.2523310  11.7622550   3.2409320
  46.2471760  12.2658350  15.3604960  47.1739070  12.0302620  15.4040920
  46.2322190  13.0930350  14.8790990  54.4816820  11.8083920   2.3579210
  54.6569010  11.1221660   1.7140130  53.7838390  12.3330970   1.9655880
  52.8149320  11.4928210  15.1846000  53.6074640  10.9977440  14.9771960
  53.1082470  12.1718350  15.7921610  30.1665490  96.2366600  61.1636010
  30.0859540  95.3221210  60.8927720  29.7529910  96.7333670  60.4575720
  28.2983530  98.0145620  63.0445280  27.5225630  97.5346060  63.3343850
  28.9496460  97.3351270  62.8701440  22.3149360  98.3265430  63.9221040
  21.4834240  98.0714140  64.3217550  22.9230340  98.3976200  64.6578960
  20.7241310  93.2867320  57.7063430  19.8358010  93.6283290  57.6043310
  21.0082500  93.0867640  56.8144260  18.6874320  95.8872970  63.5903130
  19.2590430  95.1195170  63.5906770  18.6875860  96.1861730  62.6809740
  19.9299190  91.2957330  65.3772060  19.7502030  90.3983080  65.6574820
  19.5279270  91.8429200  66.0519010  28.7697690  93.4973190  63.2784370
  29.1462510  92.6245070  63.1658040  28.6717200  93.8331890  62.3874810
  22.9002700  91.8698820  58.7401810  23.0069450  92.7702550  59.0470570
  21.9895060  91.8216790  58.4496460  32.5521810  90.9923630  60.2112710
  33.3731430  90.5020200  60.2538190  32.5855890  91.5821290  60.9644550
  20.5485860  93.7917830  63.9854400  21.2295970  94.0556200  64.6041800
  20.2333910  92.9518700  64.3192410  24.7410430  94.8385190  63.0726990
  25.2488650  95.3366160  63.7132010  25.2723670  94.0620390  62.8966350
  36.8421360  93.0090380  66.7756340  36.1373530  93.3972090  66.2571450
  37.1079280  93.7040670  67.3777270  23.0246530  89.4783750  67.3390410
  23.0264970  89.9956140  66.5336310  22.1950840  89.0013930  67.3160340
  32.7883290  92.9324010  62.9840250  32.0838860  93.2208900  63.5643360
  33.1495450  93.7424120  62.6239810  22.7061860  91.1893710  65.3460860
  23.0478670  92.0335760  65.0514730  21.7677670  91.3377450  65.4626200
  35.8570210  92.3778800  63.3749460  34.9095120  92.4117780  63.5064890
  36.1820200  93.1917750  63.7598820  26.3889750  88.6775980  61.6705450
  26.6964730  88.1222870  60.9540950  25.4590450  88.8120440  61.4878440
  28.7770510  96.7424810  58.4065570  27.8499790  96.6762190  58.6354040
  28.9295330  97.6804940  58.2920810  28.7639590  93.0141810  55.4032730
  27.8243260  93.1755770  55.4885190  29.0822850  93.7327490  54.8568720
  35.2852350  97.6960330  65.3811760  34.4570980  97.7653420  64.9061890
  35.8802830  98.2814640  64.9127590  32.8067800  98.3045110  58.9100820
  32.1880220  97.9664660  58.2627120  32.7892250  97.6604870  59.6180010
  32.2494360  94.4829650  66.3266630  31.8365540  95.3083360  66.5806620
  31.5170310  93.8974690  66.1342990  24.3827150  97.2689550  61.1885300
  23.9784150  96.5566800  60.6931200  24.4690270  96.9242790  62.0773340
  23.0955770  94.0432760  64.9684340  23.6470360  94.1528100  64.1937590
  23.6099280  94.4170360  65.6839570  30.9832500  97.5431920  55.9173570
  31.4225780  96.7054350  55.7711390  31.6960920  98.1761320  56.0037710
  34.5649640  88.7974730  54.2314610  34.2522300  88.8901560  55.1313680
  35.3262110  89.3755760  54.1812040  21.0831780  96.1634530  58.6891950
  20.9629380  96.8896620  58.0773220  20.7732670  95.3937440  58.2119860
  23.5495440  89.5069600  62.0715620  23.1063590  90.2879140  61.7400140
  24.1080430  89.8299490  62.7786560  26.6654260  89.1280300  56.9521450
  26.0408440  89.1240170  57.6774760  26.5784380  88.2611260  56.5557420
  25.5871340  90.0516930  63.9305220  25.8843670  90.9579760  63.8497240
  26.1356900  89.5635710  63.3164790  23.3409660  94.6303170  59.7996870
  23.1150580  94.4140340  60.7043490  22.5602190  95.0631630  59.4542840
  30.5707420  94.6366540  58.3987520  29.9716310  95.3602340  58.2151140
  31.1187030  94.5743320  57.6163970  29.1772290  93.2730080  60.4290800
  29.5701860  93.5902280  59.6159490  29.5389140  92.3941960  60.5435320
  18.2136460  89.8630880  62.6521000  17.9249510  90.4333740  63.3645980
  18.9582220  89.3835330  63.0152230  18.4006690  93.8051000  53.8623720
  18.3181360  94.7481760  54.0038710  18.0489750  93.6625910  52.9836070
  29.7627430  95.8635830  64.5241580  29.0308550  96.3722640  64.8731680
  29.3651770  95.0465810  64.2230360  26.2004820  92.5390030  62.9294070
  26.2040880  92.0979980  62.0798610  27.0955940  92.8607360  63.0365890
  22.0507200  92.4216520  61.8888280  21.7107250  92.8991750  62.6455330
  21.2884520  91.9681640  61.5289380  26.2624970  93.5402110  55.9200830
  26.3837790  93.4988590  56.8686650  25.8773480  94.4026260  55.7647560
  30.2253340  91.3169510  63.9364520  30.2426080  91.7678160  64.7806370
  29.9768920  90.4175150  64.1497960  25.2746470  95.8503250  55.3184130
  24.7063370  95.4021500  54.6920040  25.9835470  96.2096030  54.7849280
  26.5012790  96.5991810  64.6759480  26.8682920  96.1250380  65.4220820
  26.3117850  97.4733380  65.0167820  19.3653280  91.3435500  60.8052950
  19.0800200  90.9791170  61.6431570  19.3032140  90.6115960  60.1916090
  24.2912160  95.6400450  66.9943690  23.9869230  96.5192430  67.2194050
  25.2458620  95.7000240  67.0301130  29.0391870  90.2364760  57.5266320
  28.2256480  89.7377930  57.4511630  28.8453820  91.0763010  57.1102670
  31.7540260  94.6084410  55.8228480  32.6419880  94.9201640  55.6479820
  31.7245350  93.7356660  55.4309060  34.0254530  95.9196250  55.2908340
  33.9418250  96.3510470  54.4404780  34.7448720  96.3794600  55.7235160
  18.8583940  96.4794450  54.7649650  19.7278790  96.7619250  55.0485570
  18.3674260  97.2930320  54.6498460  26.0218750  97.8667660  58.8857930
  26.4781530  98.6772910  59.1118120  25.6706960  97.5490800  59.7176420
  21.9230530  88.2105310  59.3580450  21.7945160  88.2023210  60.3065370
  21.0992550  88.5488400  59.0071460  30.4163240  92.4618740  66.5688600
  30.7844060  91.6413950  66.8968170  29.5561440  92.5220630  66.9844250
  33.7825270  91.4175680  57.3776160  33.1538430  91.5221350  56.6634390
  33.2877190  91.6372460  58.1670040  25.7509300  93.6961630  58.7934040
  25.0425450  94.1647970  59.2347650  26.0353780  93.0383640  59.4279230
  27.3765230  95.1158330  66.7926570  27.8750480  95.5904150  67.4578420
  27.5188180  94.1921850  66.9996600  29.7824730  90.4212290  60.2329830
  29.6592510  90.4398420  59.2839340  30.7309290  90.4691230  60.3528230
  23.9544320  92.0046710  56.1684750  24.8034850  92.4416860  56.1024940
  23.5875590  92.3166970  56.9956810  32.8754100  96.5759470  61.0816320
  31.9344240  96.5909700  61.2564010  33.1898170  95.7895430  61.5276620
  22.8535740  98.2579070  54.6420280  23.6199010  98.1460430  55.2045710
  22.9310430  97.5617040  53.9897050  21.5482500  95.6904140  55.3253170
  21.6286090  94.7431650  55.4370570  22.4402250  96.0211020  55.4313830
  24.8854770  98.2544200  56.6162920  25.3071190  98.0884070  57.4594310
  25.0105610  97.4444430  56.1218060  27.3982410  97.2781810  53.8640020
  27.9188070  96.5630830  53.4981170  28.0450810  97.9167680  54.1640530
  26.3015930  89.7576360  66.5358580  25.8533230  89.7800620  65.6904130
  25.6681130  89.3595380  67.1328880  31.3827280  96.9384060  67.1171370
  30.8562500  97.4626680  66.5136510  31.7258620  97.5711450  67.7481100
  23.7813670  94.3277430  53.5621080  23.5802730  93.4644790  53.9234420
  23.6105720  94.2410790  52.6242680  31.2601980  89.1385660  56.0907960
  31.5404270  88.2953560  56.4467380  30.4867710  89.3708770  56.6046710
  22.5796470  91.4278050  53.5498960  22.8822370  91.4345480  52.6418110
  23.3191060  91.0775910  54.0466620  25.7981400  90.3712670  54.5355160
  25.4503400  89.6936660  53.9557610  25.9994170  89.9102180  55.3498550
  19.1387040  96.9000320  60.9319530  18.4835880  96.6311960  60.2879230
  19.9764990  96.7904800  60.4821510  32.0877480  91.6941610  55.1538020
  32.5062360  91.5072590  54.3134680  31.7813540  90.8420660  55.4640950
  35.5867210  96.6065750  58.8513820  35.2110810  95.8393680  58.4195110
  34.8570330  96.9888450  59.3388750  20.1762970  97.2852890  65.4722870
  20.5436010  97.1980290  66.3518890  19.6073790  96.5219440  65.3729730
  18.3525120  94.1099250  56.8744860  17.4489200  94.3729450  56.6996520
  18.8365740  94.3810420  56.0944820  34.8618170  94.8323240  62.1521060
  35.3855650  94.3385890  61.5211230  35.4477590  94.9673600  62.8968630
  35.0407890  94.9163110  65.6740610  34.0910600  94.8826650  65.7885600
  35.2220900  95.8263220  65.4390380  20.8952330  93.1664790  54.7839240
  21.6044030  92.7448010  54.2986520  20.1792270  93.2340020  54.1522590
  20.5426490  89.2204120  53.8241890  21.2654620  89.7613060  54.1423110
  20.8151010  88.9467540  52.9483430  34.3518140  94.0896590  58.0913470
  34.8477260  93.8567460  58.8762350  34.1534210  93.2508430  57.6751110
  20.2318680  88.4710310  63.7264510  20.8794870  87.9207690  63.2859670
  20.6520520  88.7253460  64.5480320  35.7805300  92.7257540  60.6251150
  35.6704580  92.5713580  61.5633420  36.5412890  92.1978480  60.3826560
  34.1271020  88.6651670  67.0834150  34.7643240  89.2785810  67.4493340
  34.2745910  88.7012330  66.1383380  36.6695570  90.5565460  53.8657290
  37.5944880  90.4246640  53.6575580  36.6471360  90.6358280  54.8193740
  36.7434060  91.3276120  56.4914000  35.9485560  91.2621240  57.0206910
  36.9477340  92.2626760  56.4799350  19.9850680  88.6265980  66.4689830
  19.6365500  89.0829800  67.2348010  19.6538380  87.7323110  66.5512260
  30.8758100  88.0380060  65.9570830  30.0017940  88.3715170  65.7543760
  30.7668850  87.5653240  66.7822700  31.7830080  90.2450930  67.3412550
  31.4543440  89.4302690  66.9614280  32.7312380  90.2020740  67.2178240
  28.6232920  88.9549900  64.8963740  27.8404710  89.4295400  65.1760500
  28.3295850  88.0504730  64.7876920  33.1753990  89.6573000  62.9412830
  33.6162080  89.6018100  62.0934430  32.9061580  90.5731010  63.0123010
  35.0392560  89.2888240  60.9521650  34.9780960  88.3449460  60.8052670
  35.8184590  89.3968330  61.4975110  19.9673330  89.2597380  57.4177460
  20.7252690  89.3726260  56.8441490  19.5050500  90.0966580  57.3720890
  26.5087140  91.3736650  60.4079770  25.6961650  90.9993540  60.0675650
  27.0128780  90.6181730  60.7100960  31.0112120  88.0379100  61.6462840
  31.6141490  88.6099310  62.1211360  30.2705110  88.6018540  61.4236740
  34.1546720  88.4400660  56.9203120  34.3497350  89.3384110  57.1870550
  33.3676590  88.2087740  57.4136070  22.3398480  89.7861430  55.9579430
  22.8691240  88.9991230  55.8287380  22.9726800  90.4652620  56.1914960
  24.5336320  89.5236570  59.0124820  23.9039060  88.8223880  59.1794950
  23.9941460  90.2840700  58.7957980  30.1665490  96.2366600  42.3892520
  30.0859540  95.3221210  42.1184230  29.7529910  96.7333670  41.6832230
  28.2983530  98.0145620  44.2701790  27.5225630  97.5346060  44.5600360
  28.9496460  97.3351270  44.0957950  22.3149360  98.3265430  45.1477550
  21.4834240  98.0714140  45.5474060  22.9230340  98.3976200  45.8835470
  20.7241310  93.2867320  38.9319940  19.8358010  93.6283290  38.8299820
  21.0082500  93.0867640  38.0400770  18.6874320  95.8872970  44.8159640
  19.2590430  95.1195170  44.8163280  18.6875860  96.1861730  43.9066250
  19.9299190  91.2957330  46.6028570  19.7502030  90.3983080  46.8831330
  19.5279270  91.8429200  47.2775520  28.7697690  93.4973190  44.5040880
  29.1462510  92.6245070  44.3914550  28.6717200  93.8331890  43.6131320
  22.9002700  91.8698820  39.9658320  23.0069450  92.7702550  40.2727080
  21.9895060  91.8216790  39.6752970  32.5521810  90.9923630  41.4369220
  33.3731430  90.5020200  41.4794700  32.5855890  91.5821290  42.1901060
  20.5485860  93.7917830  45.2110910  21.2295970  94.0556200  45.8298310
  20.2333910  92.9518700  45.5448920  24.7410430  94.8385190  44.2983500
  25.2488650  95.3366160  44.9388520  25.2723670  94.0620390  44.1222860
  36.8421360  93.0090380  48.0012850  36.1373530  93.3972090  47.4827960
  37.1079280  93.7040670  48.6033780  23.0246530  89.4783750  48.5646920
  23.0264970  89.9956140  47.7592820  22.1950840  89.0013930  48.5416850
  32.7883290  92.9324010  44.2096760  32.0838860  93.2208900  44.7899870
  33.1495450  93.7424120  43.8496320  22.7061860  91.1893710  46.5717370
  23.0478670  92.0335760  46.2771240  21.7677670  91.3377450  46.6882710
  35.8570210  92.3778800  44.6005970  34.9095120  92.4117780  44.7321400
  36.1820200  93.1917750  44.9855330  26.3889750  88.6775980  42.8961960
  26.6964730  88.1222870  42.1797460  25.4590450  88.8120440  42.7134950
  28.7770510  96.7424810  39.6322080  27.8499790  96.6762190  39.8610550
  28.9295330  97.6804940  39.5177320  28.7639590  93.0141810  36.6289240
  27.8243260  93.1755770  36.7141700  29.0822850  93.7327490  36.0825230
  35.2852350  97.6960330  46.6068270  34.4570980  97.7653420  46.1318400
  35.8802830  98.2814640  46.1384100  32.8067800  98.3045110  40.1357330
  32.1880220  97.9664660  39.4883630  32.7892250  97.6604870  40.8436520
  32.2494360  94.4829650  47.5523140  31.8365540  95.3083360  47.8063130
  31.5170310  93.8974690  47.3599500  24.3827150  97.2689550  42.4141810
  23.9784150  96.5566800  41.9187710  24.4690270  96.9242790  43.3029850
  23.0955770  94.0432760  46.1940850  23.6470360  94.1528100  45.4194100
  23.6099280  94.4170360  46.9096080  30.9832500  97.5431920  37.1430080
  31.4225780  96.7054350  36.9967900  31.6960920  98.1761320  37.2294220
  22.7698500  97.5652120  49.8046190  22.6306270  98.4374920  50.1733590
  21.8879860  97.2224930  49.6594130  34.5649640  88.7974730  35.4571120
  34.2522300  88.8901560  36.3570190  35.3262110  89.3755760  35.4068550
  21.0831780  96.1634530  39.9148460  20.9629380  96.8896620  39.3029730
  20.7732670  95.3937440  39.4376370  35.7750930  93.5346230  51.4345260
  35.1595200  94.0425900  50.9060720  35.4547350  92.6344560  51.3771200
  23.5495440  89.5069600  43.2972130  23.1063590  90.2879140  42.9656650
  24.1080430  89.8299490  44.0043070  27.8365250  92.3738120  48.9007450
  27.3744620  92.5821140  49.7127390  27.4343360  91.5597470  48.5978120
  32.8369760  93.5947070  50.0304110  31.9863350  93.2952820  50.3513180
  32.6771550  93.8389080  49.1187930  29.9319470  95.0948820  52.1302900
  30.2572880  94.2612570  51.7905130  30.7199800  95.6177340  52.2781230
  26.6654260  89.1280300  38.1777960  26.0408440  89.1240170  38.9031270
  26.5784380  88.2611260  37.7813930  25.5871340  90.0516930  45.1561730
  25.8843670  90.9579760  45.0753750  26.1356900  89.5635710  44.5421300
  23.3409660  94.6303170  41.0253380  23.1150580  94.4140340  41.9300000
  22.5602190  95.0631630  40.6799350  30.5707420  94.6366540  39.6244030
  29.9716310  95.3602340  39.4407650  31.1187030  94.5743320  38.8420480
  25.7808870  95.5288750  51.6913650  25.6852470  94.5883480  51.5414050
  26.6240850  95.7503820  51.2961720  29.1772290  93.2730080  41.6547310
  29.5701860  93.5902280  40.8416000  29.5389140  92.3941960  41.7691830
  20.9119410  91.9402420  49.8447430  20.5182800  92.7877630  50.0520210
  20.2237810  91.3028790  50.0356070  27.4864460  92.0237390  52.9144170
  26.7962780  91.8309590  53.5490260  28.2296760  92.3072030  53.4468470
  18.2136460  89.8630880  43.8777510  17.9249510  90.4333740  44.5902490
  18.9582220  89.3835330  44.2408740  18.4006690  93.8051000  35.0880230
  18.3181360  94.7481760  35.2295220  18.0489750  93.6625910  34.2092580
  29.7627430  95.8635830  45.7498090  29.0308550  96.3722640  46.0988190
  29.3651770  95.0465810  45.4486870  26.2004820  92.5390030  44.1550580
  26.2040880  92.0979980  43.3055120  27.0955940  92.8607360  44.2622400
  22.0507200  92.4216520  43.1144790  21.7107250  92.8991750  43.8711840
  21.2884520  91.9681640  42.7545890  26.2624970  93.5402110  37.1457340
  26.3837790  93.4988590  38.0943160  25.8773480  94.4026260  36.9904070
  30.2253340  91.3169510  45.1621030  30.2426080  91.7678160  46.0062880
  29.9768920  90.4175150  45.3754470  25.2746470  95.8503250  36.5440640
  24.7063370  95.4021500  35.9176550  25.9835470  96.2096030  36.0105790
  33.6524090  88.7301690  51.0007410  33.9769860  87.9991350  51.5265390
  33.6880600  88.4115330  50.0988400  26.5012790  96.5991810  45.9015990
  26.8682920  96.1250380  46.6477330  26.3117850  97.4733380  46.2424330
  19.3653280  91.3435500  42.0309460  19.0800200  90.9791170  42.8688080
  19.3032140  90.6115960  41.4172600  24.2912160  95.6400450  48.2200200
  23.9869230  96.5192430  48.4450560  25.2458620  95.7000240  48.2557640
  29.0391870  90.2364760  38.7522830  28.2256480  89.7377930  38.6768140
  28.8453820  91.0763010  38.3359180  31.7540260  94.6084410  37.0484990
  32.6419880  94.9201640  36.8736330  31.7245350  93.7356660  36.6565570
  20.3475890  96.4803190  49.3671560  19.9890830  97.1457040  49.9544900
  20.0530450  95.6486740  49.7384180  23.5489010  96.9387430  52.2511110
  23.2489150  97.0844610  51.3538930  24.3200250  96.3792720  52.1584500
  34.0254530  95.9196250  36.5164850  33.9418250  96.3510470  35.6661290
  34.7448720  96.3794600  36.9491670  18.8583940  96.4794450  35.9906160
  19.7278790  96.7619250  36.2742080  18.3674260  97.2930320  35.8754970
  26.0218750  97.8667660  40.1114440  26.4781530  98.6772910  40.3374630
  25.6706960  97.5490800  40.9432930  21.9230530  88.2105310  40.5836960
  21.7945160  88.2023210  41.5321880  21.0992550  88.5488400  40.2327970
  18.9224460  89.9696430  50.0443660  18.2082980  90.1693350  50.6496270
  19.3419500  89.1936000  50.4158460  30.4163240  92.4618740  47.7945110
  30.7844060  91.6413950  48.1224680  29.5561440  92.5220630  48.2100760
  33.7825270  91.4175680  38.6032670  33.1538430  91.5221350  37.8890900
  33.2877190  91.6372460  39.3926550  25.7509300  93.6961630  40.0190550
  25.0425450  94.1647970  40.4604160  26.0353780  93.0383640  40.6535740
  27.3765230  95.1158330  48.0183080  27.8750480  95.5904150  48.6834930
  27.5188180  94.1921850  48.2253110  29.7824730  90.4212290  41.4586340
  29.6592510  90.4398420  40.5095850  30.7309290  90.4691230  41.5784740
  23.9544320  92.0046710  37.3941260  24.8034850  92.4416860  37.3281450
  23.5875590  92.3166970  38.2213320  34.5832090  91.3326290  48.8611470
  34.0805690  92.0731690  49.2005280  35.3988750  91.7210290  48.5448260
  32.8754100  96.5759470  42.3072830  31.9344240  96.5909700  42.4820520
  33.1898170  95.7895430  42.7533130  22.8535740  98.2579070  35.8676790
  23.6199010  98.1460430  36.4302220  22.9310430  97.5617040  35.2153560
  21.5482500  95.6904140  36.5509680  21.6286090  94.7431650  36.6627080
  22.4402250  96.0211020  36.6570340  19.0753300  97.5119060  51.7865850
  19.5792320  96.9326340  52.3582080  18.3360720  97.7959290  52.3242220
  21.1076380  95.6548650  52.6815920  21.1481720  95.3562520  53.5901150
  21.9621880  96.0556260  52.5223440  24.8854770  98.2544200  37.8419430
  25.3071190  98.0884070  38.6850820  25.0105610  97.4444430  37.3474570
  23.0482190  94.2340750  50.6490410  22.5178650  93.7431700  50.0213750
  23.7170260  94.6624950  50.1148340  27.3982410  97.2781810  35.0896530
  27.9188070  96.5630830  34.7237680  28.0450810  97.9167680  35.3897040
  32.4182420  96.0406370  52.4170750  33.0003190  95.2858690  52.3291230
  32.5944190  96.5713810  51.6402230  23.5354490  91.2003120  50.7287700
  23.4411360  90.5823870  50.0038570  22.9551880  91.9269410  50.5017610
  26.3015930  89.7576360  47.7615090  25.8533230  89.7800620  46.9160640
  25.6681130  89.3595380  48.3585390  29.0439380  96.3846870  49.7665370
  29.1635590  95.7888010  50.5060210  29.9033380  96.4216560  49.3466670
  31.3827280  96.9384060  48.3427880  30.8562500  97.4626680  47.7393020
  31.7258620  97.5711450  48.9737610  23.7813670  94.3277430  34.7877590
  23.5802730  93.4644790  35.1490930  23.6105720  94.2410790  33.8499190
  25.8108150  92.9268220  51.0241190  26.4007840  92.6184070  51.7119010
  24.9928390  92.4547970  51.1801090  30.6301580  92.5434030  51.2574210
  29.9417100  91.8815570  51.1924200  31.3507600  92.0972300  51.7022670
  31.2601980  89.1385660  37.3164470  31.5404270  88.2953560  37.6723890
  30.4867710  89.3708770  37.8303220  22.5796470  91.4278050  34.7755470
  22.8822370  91.4345480  33.8674620  23.3191060  91.0775910  35.2723130
  25.7981400  90.3712670  35.7611670  25.4503400  89.6936660  35.1814120
  25.9994170  89.9102180  36.5755060  19.1387040  96.9000320  42.1576040
  18.4835880  96.6311960  41.5135740  19.9764990  96.7904800  41.7078020
  32.0877480  91.6941610  36.3794530  32.5062360  91.5072590  35.5391190
  31.7813540  90.8420660  36.6897460  35.5867210  96.6065750  40.0770330
  35.2110810  95.8393680  39.6451620  34.8570330  96.9888450  40.5645260
  20.1762970  97.2852890  46.6979380  20.5436010  97.1980290  47.5775400
  19.6073790  96.5219440  46.5986240  34.9766830  95.7537270  49.7109850
  34.7452920  95.5250020  48.8107800  35.2371380  96.6736820  49.6654740
  19.7278970  94.1961980  50.6037800  18.8335020  94.1628740  50.9431510
  20.2676520  94.3948770  51.3689050  33.4154900  90.9793700  52.4889550
  34.2925080  90.9877100  52.8723550  33.4275740  90.2424540  51.8781900
  18.3525120  94.1099250  38.1001370  17.4489200  94.3729450  37.9253030
  18.8365740  94.3810420  37.3201330  34.8618170  94.8323240  43.3777570
  35.3855650  94.3385890  42.7467740  35.4477590  94.9673600  44.1225140
  35.0407890  94.9163110  46.8997120  34.0910600  94.8826650  47.0142110
  35.2220900  95.8263220  46.6646890  20.8952330  93.1664790  36.0095750
  21.6044030  92.7448010  35.5243030  20.1792270  93.2340020  35.3779100
  20.5426490  89.2204120  35.0498400  21.2654620  89.7613060  35.3679620
  20.8151010  88.9467540  34.1739940  34.3518140  94.0896590  39.3169980
  34.8477260  93.8567460  40.1018860  34.1534210  93.2508430  38.9007620
  20.2318680  88.4710310  44.9521020  20.8794870  87.9207690  44.5116180
  20.6520520  88.7253460  45.7736830  35.7805300  92.7257540  41.8507660
  35.6704580  92.5713580  42.7889930  36.5412890  92.1978480  41.6083070
  34.1271020  88.6651670  48.3090660  34.7643240  89.2785810  48.6749850
  34.2745910  88.7012330  47.3639890  36.6695570  90.5565460  35.0913800
  37.5944880  90.4246640  34.8832090  36.6471360  90.6358280  36.0450250
  36.7434060  91.3276120  37.7170510  35.9485560  91.2621240  38.2463420
  36.9477340  92.2626760  37.7055860  19.9850680  88.6265980  47.6946340
  19.6365500  89.0829800  48.4604520  19.6538380  87.7323110  47.7768770
  27.4975500  89.8177860  51.2165760  27.4364390  90.4099690  51.9661170
  28.4375880  89.7103820  51.0716020  30.1350060  89.4747920  50.8558050
  30.7490470  89.7927210  50.1939130  30.6799620  88.9896510  51.4753910
  20.6571320  88.1542180  50.9697110  21.2054310  87.9730230  50.2063220
  20.7226630  87.3636290  51.5053420  30.8758100  88.0380060  47.1827340
  30.0017940  88.3715170  46.9800270  30.7668850  87.5653240  48.0079210
  31.7830080  90.2450930  48.5669060  31.4543440  89.4302690  48.1870790
  32.7312380  90.2020740  48.4434750  28.6232920  88.9549900  46.1220250
  27.8404710  89.4295400  46.4017010  28.3295850  88.0504730  46.0133430
  33.1753990  89.6573000  44.1669340  33.6162080  89.6018100  43.3190940
  32.9061580  90.5731010  44.2379520  35.0392560  89.2888240  42.1778160
  34.9780960  88.3449460  42.0309180  35.8184590  89.3968330  42.7231620
  19.9673330  89.2597380  38.6433970  20.7252690  89.3726260  38.0698000
  19.5050500  90.0966580  38.5977400  26.5087140  91.3736650  41.6336280
  25.6961650  90.9993540  41.2932160  27.0128780  90.6181730  41.9357470
  31.0112120  88.0379100  42.8719350  31.6141490  88.6099310  43.3467870
  30.2705110  88.6018540  42.6493250  34.1546720  88.4400660  38.1459630
  34.3497350  89.3384110  38.4127060  33.3676590  88.2087740  38.6392580
  22.3398480  89.7861430  37.1835940  22.8691240  88.9991230  37.0543890
  22.9726800  90.4652620  37.4171470  24.5336320  89.5236570  40.2381330
  23.9039060  88.8223880  40.4051460  23.9941460  90.2840700  40.0214490
  24.6591880  88.8020550  52.6733820  24.3776150  89.3054150  51.9094640
  25.0411580  88.0042300  52.3075950  31.2607340  88.2174130  53.2514290
  31.1472790  88.5368740  54.1465810  32.0777080  88.6186640  52.9551570
  30.1665490  96.2366600  23.6149030  30.0859540  95.3221210  23.3440740
  29.7529910  96.7333670  22.9088740  28.2983530  98.0145620  25.4958300
  27.5225630  97.5346060  25.7856870  28.9496460  97.3351270  25.3214460
  22.3149360  98.3265430  26.3734060  21.4834240  98.0714140  26.7730570
  22.9230340  98.3976200  27.1091980  20.7241310  93.2867320  20.1576450
  19.8358010  93.6283290  20.0556330  21.0082500  93.0867640  19.2657280
  18.6874320  95.8872970  26.0416150  19.2590430  95.1195170  26.0419790
  18.6875860  96.1861730  25.1322760  19.9299190  91.2957330  27.8285080
  19.7502030  90.3983080  28.1087840  19.5279270  91.8429200  28.5032030
  28.7697690  93.4973190  25.7297390  29.1462510  92.6245070  25.6171060
  28.6717200  93.8331890  24.8387830  22.9002700  91.8698820  21.1914830
  23.0069450  92.7702550  21.4983590  21.9895060  91.8216790  20.9009480
  32.5521810  90.9923630  22.6625730  33.3731430  90.5020200  22.7051210
  32.5855890  91.5821290  23.4157570  20.5485860  93.7917830  26.4367420
  21.2295970  94.0556200  27.0554820  20.2333910  92.9518700  26.7705430
  24.7410430  94.8385190  25.5240010  25.2488650  95.3366160  26.1645030
  25.2723670  94.0620390  25.3479370  36.8421360  93.0090380  29.2269360
  36.1373530  93.3972090  28.7084470  37.1079280  93.7040670  29.8290290
  23.0246530  89.4783750  29.7903430  23.0264970  89.9956140  28.9849330
  22.1950840  89.0013930  29.7673360  32.7883290  92.9324010  25.4353270
  32.0838860  93.2208900  26.0156380  33.1495450  93.7424120  25.0752830
  22.7061860  91.1893710  27.7973880  23.0478670  92.0335760  27.5027750
  21.7677670  91.3377450  27.9139220  35.8570210  92.3778800  25.8262480
  34.9095120  92.4117780  25.9577910  36.1820200  93.1917750  26.2111840
  26.3889750  88.6775980  24.1218470  26.6964730  88.1222870  23.4053970
  25.4590450  88.8120440  23.9391460  28.7770510  96.7424810  20.8578590
  27.8499790  96.6762190  21.0867060  28.9295330  97.6804940  20.7433830
  28.7639590  93.0141810  17.8545750  27.8243260  93.1755770  17.9398210
  29.0822850  93.7327490  17.3081740  35.2852350  97.6960330  27.8324780
  34.4570980  97.7653420  27.3574910  35.8802830  98.2814640  27.3640610
  32.8067800  98.3045110  21.3613840  32.1880220  97.9664660  20.7140140
  32.7892250  97.6604870  22.0693030  32.2494360  94.4829650  28.7779650
  31.8365540  95.3083360  29.0319640  31.5170310  93.8974690  28.5856010
  24.3827150  97.2689550  23.6398320  23.9784150  96.5566800  23.1444220
  24.4690270  96.9242790  24.5286360  23.0955770  94.0432760  27.4197360
  23.6470360  94.1528100  26.6450610  23.6099280  94.4170360  28.1352590
  30.9832500  97.5431920  18.3686590  31.4225780  96.7054350  18.2224410
  31.6960920  98.1761320  18.4550730  22.7698500  97.5652120  31.0302700
  22.6306270  98.4374920  31.3990100  21.8879860  97.2224930  30.8850640
  34.5649640  88.7974730  16.6827630  34.2522300  88.8901560  17.5826700
  35.3262110  89.3755760  16.6325060  21.0831780  96.1634530  21.1404970
  20.9629380  96.8896620  20.5286240  20.7732670  95.3937440  20.6632880
  35.7750930  93.5346230  32.6601770  35.1595200  94.0425900  32.1317230
  35.4547350  92.6344560  32.6027710  23.5495440  89.5069600  24.5228640
  23.1063590  90.2879140  24.1913160  24.1080430  89.8299490  25.2299580
  27.8365250  92.3738120  30.1263960  27.3744620  92.5821140  30.9383900
  27.4343360  91.5597470  29.8234630  32.8369760  93.5947070  31.2560620
  31.9863350  93.2952820  31.5769690  32.6771550  93.8389080  30.3444440
  29.9319470  95.0948820  33.3559410  30.2572880  94.2612570  33.0161640
  30.7199800  95.6177340  33.5037740  26.6654260  89.1280300  19.4034470
  26.0408440  89.1240170  20.1287780  26.5784380  88.2611260  19.0070440
  25.5871340  90.0516930  26.3818240  25.8843670  90.9579760  26.3010260
  26.1356900  89.5635710  25.7677810  23.3409660  94.6303170  22.2509890
  23.1150580  94.4140340  23.1556510  22.5602190  95.0631630  21.9055860
  30.5707420  94.6366540  20.8500540  29.9716310  95.3602340  20.6664160
  31.1187030  94.5743320  20.0676990  25.7808870  95.5288750  32.9170160
  25.6852470  94.5883480  32.7670560  26.6240850  95.7503820  32.5218230
  29.1772290  93.2730080  22.8803820  29.5701860  93.5902280  22.0672510
  29.5389140  92.3941960  22.9948340  20.9119410  91.9402420  31.0703940
  20.5182800  92.7877630  31.2776720  20.2237810  91.3028790  31.2612580
  27.4864460  92.0237390  34.1400680  26.7962780  91.8309590  34.7746770
  28.2296760  92.3072030  34.6724980  18.2136460  89.8630880  25.1034020
  17.9249510  90.4333740  25.8159000  18.9582220  89.3835330  25.4665250
  18.4006690  93.8051000  16.3136740  18.3181360  94.7481760  16.4551730
  18.0489750  93.6625910  15.4349090  29.7627430  95.8635830  26.9754600
  29.0308550  96.3722640  27.3244700  29.3651770  95.0465810  26.6743380
  26.2004820  92.5390030  25.3807090  26.2040880  92.0979980  24.5311630
  27.0955940  92.8607360  25.4878910  22.0507200  92.4216520  24.3401300
  21.7107250  92.8991750  25.0968350  21.2884520  91.9681640  23.9802400
  26.2624970  93.5402110  18.3713850  26.3837790  93.4988590  19.3199670
  25.8773480  94.4026260  18.2160580  30.2253340  91.3169510  26.3877540
  30.2426080  91.7678160  27.2319390  29.9768920  90.4175150  26.6010980
  25.2746470  95.8503250  17.7697150  24.7063370  95.4021500  17.1433060
  25.9835470  96.2096030  17.2362300  33.6524090  88.7301690  32.2263920
  33.9769860  87.9991350  32.7521900  33.6880600  88.4115330  31.3244910
  26.5012790  96.5991810  27.1272500  26.8682920  96.1250380  27.8733840
  26.3117850  97.4733380  27.4680840  19.3653280  91.3435500  23.2565970
  19.0800200  90.9791170  24.0944590  19.3032140  90.6115960  22.6429110
  24.2912160  95.6400450  29.4456710  23.9869230  96.5192430  29.6707070
  25.2458620  95.7000240  29.4814150  29.0391870  90.2364760  19.9779340
  28.2256480  89.7377930  19.9024650  28.8453820  91.0763010  19.5615690
  31.7540260  94.6084410  18.2741500  32.6419880  94.9201640  18.0992840
  31.7245350  93.7356660  17.8822080  20.3475890  96.4803190  30.5928070
  19.9890830  97.1457040  31.1801410  20.0530450  95.6486740  30.9640690
  23.5489010  96.9387430  33.4767620  23.2489150  97.0844610  32.5795440
  24.3200250  96.3792720  33.3841010  34.0254530  95.9196250  17.7421360
  33.9418250  96.3510470  16.8917800  34.7448720  96.3794600  18.1748180
  18.8583940  96.4794450  17.2162670  19.7278790  96.7619250  17.4998590
  18.3674260  97.2930320  17.1011480  26.0218750  97.8667660  21.3370950
  26.4781530  98.6772910  21.5631140  25.6706960  97.5490800  22.1689440
  21.9230530  88.2105310  21.8093470  21.7945160  88.2023210  22.7578390
  21.0992550  88.5488400  21.4584480  18.9224460  89.9696430  31.2700170
  18.2082980  90.1693350  31.8752780  19.3419500  89.1936000  31.6414970
  30.4163240  92.4618740  29.0201620  30.7844060  91.6413950  29.3481190
  29.5561440  92.5220630  29.4357270  33.7825270  91.4175680  19.8289180
  33.1538430  91.5221350  19.1147410  33.2877190  91.6372460  20.6183060
  25.7509300  93.6961630  21.2447060  25.0425450  94.1647970  21.6860670
  26.0353780  93.0383640  21.8792250  27.3765230  95.1158330  29.2439590
  27.8750480  95.5904150  29.9091440  27.5188180  94.1921850  29.4509620
  29.7824730  90.4212290  22.6842850  29.6592510  90.4398420  21.7352360
  30.7309290  90.4691230  22.8041250  23.9544320  92.0046710  18.6197770
  24.8034850  92.4416860  18.5537960  23.5875590  92.3166970  19.4469830
  34.5832090  91.3326290  30.0867980  34.0805690  92.0731690  30.4261790
  35.3988750  91.7210290  29.7704770  32.8754100  96.5759470  23.5329340
  31.9344240  96.5909700  23.7077030  33.1898170  95.7895430  23.9789640
  22.8535740  98.2579070  17.0933300  23.6199010  98.1460430  17.6558730
  22.9310430  97.5617040  16.4410070  21.5482500  95.6904140  17.7766190
  21.6286090  94.7431650  17.8883590  22.4402250  96.0211020  17.8826850
  19.0753300  97.5119060  33.0122360  19.5792320  96.9326340  33.5838590
  18.3360720  97.7959290  33.5498730  21.1076380  95.6548650  33.9072430
  21.1481720  95.3562520  34.8157660  21.9621880  96.0556260  33.7479950
  24.8854770  98.2544200  19.0675940  25.3071190  98.0884070  19.9107330
  25.0105610  97.4444430  18.5731080  23.0482190  94.2340750  31.8746920
  22.5178650  93.7431700  31.2470260  23.7170260  94.6624950  31.3404850
  27.3982410  97.2781810  16.3153040  27.9188070  96.5630830  15.9494190
  28.0450810  97.9167680  16.6153550  32.4182420  96.0406370  33.6427260
  33.0003190  95.2858690  33.5547740  32.5944190  96.5713810  32.8658740
  23.5354490  91.2003120  31.9544210  23.4411360  90.5823870  31.2295080
  22.9551880  91.9269410  31.7274120  26.3015930  89.7576360  28.9871600
  25.8533230  89.7800620  28.1417150  25.6681130  89.3595380  29.5841900
  29.0439380  96.3846870  30.9921880  29.1635590  95.7888010  31.7316720
  29.9033380  96.4216560  30.5723180  31.3827280  96.9384060  29.5684390
  30.8562500  97.4626680  28.9649530  31.7258620  97.5711450  30.1994120
  23.7813670  94.3277430  16.0134100  23.5802730  93.4644790  16.3747440
  23.6105720  94.2410790  15.0755700  25.8108150  92.9268220  32.2497700
  26.4007840  92.6184070  32.9375520  24.9928390  92.4547970  32.4057600
  30.6301580  92.5434030  32.4830720  29.9417100  91.8815570  32.4180710
  31.3507600  92.0972300  32.9279180  31.2601980  89.1385660  18.5420980
  31.5404270  88.2953560  18.8980400  30.4867710  89.3708770  19.0559730
  22.5796470  91.4278050  16.0011980  22.8822370  91.4345480  15.0931130
  23.3191060  91.0775910  16.4979640  25.7981400  90.3712670  16.9868180
  25.4503400  89.6936660  16.4070630  25.9994170  89.9102180  17.8011570
  19.1387040  96.9000320  23.3832550  18.4835880  96.6311960  22.7392250
  19.9764990  96.7904800  22.9334530  32.0877480  91.6941610  17.6051040
  32.5062360  91.5072590  16.7647700  31.7813540  90.8420660  17.9153970
  35.5867210  96.6065750  21.3026840  35.2110810  95.8393680  20.8708130
  34.8570330  96.9888450  21.7901770  20.1762970  97.2852890  27.9235890
  20.5436010  97.1980290  28.8031910  19.6073790  96.5219440  27.8242750
  34.9766830  95.7537270  30.9366360  34.7452920  95.5250020  30.0364310
  35.2371380  96.6736820  30.8911250  19.7278970  94.1961980  31.8294310
  18.8335020  94.1628740  32.1688020  20.2676520  94.3948770  32.5945560
  33.4154900  90.9793700  33.7146060  34.2925080  90.9877100  34.0980060
  33.4275740  90.2424540  33.1038410  18.3525120  94.1099250  19.3257880
  17.4489200  94.3729450  19.1509540  18.8365740  94.3810420  18.5457840
  34.8618170  94.8323240  24.6034080  35.3855650  94.3385890  23.9724250
  35.4477590  94.9673600  25.3481650  35.0407890  94.9163110  28.1253630
  34.0910600  94.8826650  28.2398620  35.2220900  95.8263220  27.8903400
  20.8952330  93.1664790  17.2352260  21.6044030  92.7448010  16.7499540
  20.1792270  93.2340020  16.6035610  20.5426490  89.2204120  16.2754910
  21.2654620  89.7613060  16.5936130  20.8151010  88.9467540  15.3996450
  34.3518140  94.0896590  20.5426490  34.8477260  93.8567460  21.3275370
  34.1534210  93.2508430  20.1264130  20.2318680  88.4710310  26.1777530
  20.8794870  87.9207690  25.7372690  20.6520520  88.7253460  26.9993340
  35.7805300  92.7257540  23.0764170  35.6704580  92.5713580  24.0146440
  36.5412890  92.1978480  22.8339580  34.1271020  88.6651670  29.5347170
  34.7643240  89.2785810  29.9006360  34.2745910  88.7012330  28.5896400
  36.6695570  90.5565460  16.3170310  37.5944880  90.4246640  16.1088600
  36.6471360  90.6358280  17.2706760  36.7434060  91.3276120  18.9427020
  35.9485560  91.2621240  19.4719930  36.9477340  92.2626760  18.9312370
  19.9850680  88.6265980  28.9202850  19.6365500  89.0829800  29.6861030
  19.6538380  87.7323110  29.0025280  27.4975500  89.8177860  32.4422270
  27.4364390  90.4099690  33.1917680  28.4375880  89.7103820  32.2972530
  30.1350060  89.4747920  32.0814560  30.7490470  89.7927210  31.4195640
  30.6799620  88.9896510  32.7010420  20.6571320  88.1542180  32.1953620
  21.2054310  87.9730230  31.4319730  20.7226630  87.3636290  32.7309930
  30.8758100  88.0380060  28.4083850  30.0017940  88.3715170  28.2056780
  30.7668850  87.5653240  29.2335720  31.7830080  90.2450930  29.7925570
  31.4543440  89.4302690  29.4127300  32.7312380  90.2020740  29.6691260
  28.6232920  88.9549900  27.3476760  27.8404710  89.4295400  27.6273520
  28.3295850  88.0504730  27.2389940  33.1753990  89.6573000  25.3925850
  33.6162080  89.6018100  24.5447450  32.9061580  90.5731010  25.4636030
  35.0392560  89.2888240  23.4034670  34.9780960  88.3449460  23.2565690
  35.8184590  89.3968330  23.9488130  19.9673330  89.2597380  19.8690480
  20.7252690  89.3726260  19.2954510  19.5050500  90.0966580  19.8233910
  26.5087140  91.3736650  22.8592790  25.6961650  90.9993540  22.5188670
  27.0128780  90.6181730  23.1613980  31.0112120  88.0379100  24.0975860
  31.6141490  88.6099310  24.5724380  30.2705110  88.6018540  23.8749760
  34.1546720  88.4400660  19.3716140  34.3497350  89.3384110  19.6383570
  33.3676590  88.2087740  19.8649090  22.3398480  89.7861430  18.4092450
  22.8691240  88.9991230  18.2800400  22.9726800  90.4652620  18.6427980
  24.5336320  89.5236570  21.4637840  23.9039060  88.8223880  21.6307970
  23.9941460  90.2840700  21.2471000  24.6591880  88.8020550  33.8990330
  24.3776150  89.3054150  33.1351150  25.0411580  88.0042300  33.5332460
  31.2607340  88.2174130  34.4770800  31.1472790  88.5368740  35.3722320
  32.0777080  88.6186640  34.1808080  30.1665490  96.2366600   4.8405540
  30.0859540  95.3221210   4.5697250  29.7529910  96.7333670   4.1345250
  28.2983530  98.0145620   6.7214810  27.5225630  97.5346060   7.0113380
  28.9496460  97.3351270   6.5470970  22.3149360  98.3265430   7.5990570
  21.4834240  98.0714140   7.9987080  22.9230340  98.3976200   8.3348490
  18.6874320  95.8872970   7.2672660  19.2590430  95.1195170   7.2676300
  18.6875860  96.1861730   6.3579270  19.9299190  91.2957330   9.0541590
  19.7502030  90.3983080   9.3344350  19.5279270  91.8429200   9.7288540
  28.7697690  93.4973190   6.9553900  29.1462510  92.6245070   6.8427570
  28.6717200  93.8331890   6.0644340  22.9002700  91.8698820   2.4171340
  23.0069450  92.7702550   2.7240100  21.9895060  91.8216790   2.1265990
  32.5521810  90.9923630   3.8882240  33.3731430  90.5020200   3.9307720
  32.5855890  91.5821290   4.6414080  20.5485860  93.7917830   7.6623930
  21.2295970  94.0556200   8.2811330  20.2333910  92.9518700   7.9961940
  24.7410430  94.8385190   6.7496520  25.2488650  95.3366160   7.3901540
  25.2723670  94.0620390   6.5735880  36.8421360  93.0090380  10.4525870
  36.1373530  93.3972090   9.9340980  37.1079280  93.7040670  11.0546800
  23.0246530  89.4783750  11.0159940  23.0264970  89.9956140  10.2105840
  22.1950840  89.0013930  10.9929870  32.7883290  92.9324010   6.6609780
  32.0838860  93.2208900   7.2412890  33.1495450  93.7424120   6.3009340
  22.7061860  91.1893710   9.0230390  23.0478670  92.0335760   8.7284260
  21.7677670  91.3377450   9.1395730  35.8570210  92.3778800   7.0518990
  34.9095120  92.4117780   7.1834420  36.1820200  93.1917750   7.4368350
  26.3889750  88.6775980   5.3474980  26.6964730  88.1222870   4.6310480
  25.4590450  88.8120440   5.1647970  28.7770510  96.7424810   2.0835100
  27.8499790  96.6762190   2.3123570  28.9295330  97.6804940   1.9690340
  35.2852350  97.6960330   9.0581290  34.4570980  97.7653420   8.5831420
  35.8802830  98.2814640   8.5897120  32.8067800  98.3045110   2.5870350
  32.1880220  97.9664660   1.9396650  32.7892250  97.6604870   3.2949540
  32.2494360  94.4829650  10.0036160  31.8365540  95.3083360  10.2576150
  31.5170310  93.8974690   9.8112520  24.3827150  97.2689550   4.8654830
  23.9784150  96.5566800   4.3700730  24.4690270  96.9242790   5.7542870
  23.0955770  94.0432760   8.6453870  23.6470360  94.1528100   7.8707120
  23.6099280  94.4170360   9.3609100  22.7698500  97.5652120  12.2559210
  22.6306270  98.4374920  12.6246610  21.8879860  97.2224930  12.1107150
  21.0831780  96.1634530   2.3661480  20.9629380  96.8896620   1.7542750
  20.7732670  95.3937440   1.8889390  35.7750930  93.5346230  13.8858280
  35.1595200  94.0425900  13.3573740  35.4547350  92.6344560  13.8284220
  23.5495440  89.5069600   5.7485150  23.1063590  90.2879140   5.4169670
  24.1080430  89.8299490   6.4556090  27.8365250  92.3738120  11.3520470
  27.3744620  92.5821140  12.1640410  27.4343360  91.5597470  11.0491140
  32.8369760  93.5947070  12.4817130  31.9863350  93.2952820  12.8026200
  32.6771550  93.8389080  11.5700950  29.9319470  95.0948820  14.5815920
  30.2572880  94.2612570  14.2418150  30.7199800  95.6177340  14.7294250
  25.5871340  90.0516930   7.6074750  25.8843670  90.9579760   7.5266770
  26.1356900  89.5635710   6.9934320  23.3409660  94.6303170   3.4766400
  23.1150580  94.4140340   4.3813020  22.5602190  95.0631630   3.1312370
  25.7808870  95.5288750  14.1426670  25.6852470  94.5883480  13.9927070
  26.6240850  95.7503820  13.7474740  29.1772290  93.2730080   4.1060330
  29.5701860  93.5902280   3.2929020  29.5389140  92.3941960   4.2204850
  20.9119410  91.9402420  12.2960450  20.5182800  92.7877630  12.5033230
  20.2237810  91.3028790  12.4869090  27.4864460  92.0237390  15.3657190
  26.7962780  91.8309590  16.0003280  28.2296760  92.3072030  15.8981490
  18.2136460  89.8630880   6.3290530  17.9249510  90.4333740   7.0415510
  18.9582220  89.3835330   6.6921760  29.7627430  95.8635830   8.2011110
  29.0308550  96.3722640   8.5501210  29.3651770  95.0465810   7.8999890
  26.2004820  92.5390030   6.6063600  26.2040880  92.0979980   5.7568140
  27.0955940  92.8607360   6.7135420  22.0507200  92.4216520   5.5657810
  21.7107250  92.8991750   6.3224860  21.2884520  91.9681640   5.2058910
  30.2253340  91.3169510   7.6134050  30.2426080  91.7678160   8.4575900
  29.9768920  90.4175150   7.8267490  33.6524090  88.7301690  13.4520430
  33.9769860  87.9991350  13.9778410  33.6880600  88.4115330  12.5501420
  26.5012790  96.5991810   8.3529010  26.8682920  96.1250380   9.0990350
  26.3117850  97.4733380   8.6937350  19.3653280  91.3435500   4.4822480
  19.0800200  90.9791170   5.3201100  19.3032140  90.6115960   3.8685620
  24.2912160  95.6400450  10.6713220  23.9869230  96.5192430  10.8963580
  25.2458620  95.7000240  10.7070660  20.3475890  96.4803190  11.8184580
  19.9890830  97.1457040  12.4057920  20.0530450  95.6486740  12.1897200
  23.5489010  96.9387430  14.7024130  23.2489150  97.0844610  13.8051950
  24.3200250  96.3792720  14.6097520  26.0218750  97.8667660   2.5627460
  26.4781530  98.6772910   2.7887650  25.6706960  97.5490800   3.3945950
  21.9230530  88.2105310   3.0349980  21.7945160  88.2023210   3.9834900
  21.0992550  88.5488400   2.6840990  18.9224460  89.9696430  12.4956680
  18.2082980  90.1693350  13.1009290  19.3419500  89.1936000  12.8671480
  30.4163240  92.4618740  10.2458130  30.7844060  91.6413950  10.5737700
  29.5561440  92.5220630  10.6613780  25.7509300  93.6961630   2.4703570
  25.0425450  94.1647970   2.9117180  26.0353780  93.0383640   3.1048760
  27.3765230  95.1158330  10.4696100  27.8750480  95.5904150  11.1347950
  27.5188180  94.1921850  10.6766130  29.7824730  90.4212290   3.9099360
  29.6592510  90.4398420   2.9608870  30.7309290  90.4691230   4.0297760
  34.5832090  91.3326290  11.3124490  34.0805690  92.0731690  11.6518300
  35.3988750  91.7210290  10.9961280  32.8754100  96.5759470   4.7585850
  31.9344240  96.5909700   4.9333540  33.1898170  95.7895430   5.2046150
  19.0753300  97.5119060  14.2378870  19.5792320  96.9326340  14.8095100
  18.3360720  97.7959290  14.7755240  21.1076380  95.6548650  15.1328940
  21.1481720  95.3562520  16.0414170  21.9621880  96.0556260  14.9736460
  23.0482190  94.2340750  13.1003430  22.5178650  93.7431700  12.4726770
  23.7170260  94.6624950  12.5661360  32.4182420  96.0406370  14.8683770
  33.0003190  95.2858690  14.7804250  32.5944190  96.5713810  14.0915250
  23.5354490  91.2003120  13.1800720  23.4411360  90.5823870  12.4551590
  22.9551880  91.9269410  12.9530630  26.3015930  89.7576360  10.2128110
  25.8533230  89.7800620   9.3673660  25.6681130  89.3595380  10.8098410
  29.0439380  96.3846870  12.2178390  29.1635590  95.7888010  12.9573230
  29.9033380  96.4216560  11.7979690  31.3827280  96.9384060  10.7940900
  30.8562500  97.4626680  10.1906040  31.7258620  97.5711450  11.4250630
  25.8108150  92.9268220  13.4754210  26.4007840  92.6184070  14.1632030
  24.9928390  92.4547970  13.6314110  30.6301580  92.5434030  13.7087230
  29.9417100  91.8815570  13.6437220  31.3507600  92.0972300  14.1535690
  19.1387040  96.9000320   4.6089060  18.4835880  96.6311960   3.9648760
  19.9764990  96.7904800   4.1591040  35.5867210  96.6065750   2.5283350
  35.2110810  95.8393680   2.0964640  34.8570330  96.9888450   3.0158280
  20.1762970  97.2852890   9.1492400  20.5436010  97.1980290  10.0288420
  19.6073790  96.5219440   9.0499260  34.9766830  95.7537270  12.1622870
  34.7452920  95.5250020  11.2620820  35.2371380  96.6736820  12.1167760
  19.7278970  94.1961980  13.0550820  18.8335020  94.1628740  13.3944530
  20.2676520  94.3948770  13.8202070  33.4154900  90.9793700  14.9402570
  34.2925080  90.9877100  15.3236570  33.4275740  90.2424540  14.3294920
  34.8618170  94.8323240   5.8290590  35.3855650  94.3385890   5.1980760
  35.4477590  94.9673600   6.5738160  35.0407890  94.9163110   9.3510140
  34.0910600  94.8826650   9.4655130  35.2220900  95.8263220   9.1159910
  34.3518140  94.0896590   1.7683000  34.8477260  93.8567460   2.5531880
  34.1534210  93.2508430   1.3520640  20.2318680  88.4710310   7.4034040
  20.8794870  87.9207690   6.9629200  20.6520520  88.7253460   8.2249850
  35.7805300  92.7257540   4.3020680  35.6704580  92.5713580   5.2402950
  36.5412890  92.1978480   4.0596090  34.1271020  88.6651670  10.7603680
  34.7643240  89.2785810  11.1262870  34.2745910  88.7012330   9.8152910
  19.9850680  88.6265980  10.1459360  19.6365500  89.0829800  10.9117540
  19.6538380  87.7323110  10.2281790  27.4975500  89.8177860  13.6678780
  27.4364390  90.4099690  14.4174190  28.4375880  89.7103820  13.5229040
  30.1350060  89.4747920  13.3071070  30.7490470  89.7927210  12.6452150
  30.6799620  88.9896510  13.9266930  20.6571320  88.1542180  13.4210130
  21.2054310  87.9730230  12.6576240  20.7226630  87.3636290  13.9566440
  30.8758100  88.0380060   9.6340360  30.0017940  88.3715170   9.4313290
  30.7668850  87.5653240  10.4592230  31.7830080  90.2450930  11.0182080
  31.4543440  89.4302690  10.6383810  32.7312380  90.2020740  10.8947770
  28.6232920  88.9549900   8.5733270  27.8404710  89.4295400   8.8530030
  28.3295850  88.0504730   8.4646450  33.1753990  89.6573000   6.6182360
  33.6162080  89.6018100   5.7703960  32.9061580  90.5731010   6.6892540
  35.0392560  89.2888240   4.6291180  34.9780960  88.3449460   4.4822200
  35.8184590  89.3968330   5.1744640  26.5087140  91.3736650   4.0849300
  25.6961650  90.9993540   3.7445180  27.0128780  90.6181730   4.3870490
  31.0112120  88.0379100   5.3232370  31.6141490  88.6099310   5.7980890
  30.2705110  88.6018540   5.1006270  24.5336320  89.5236570   2.6894350
  23.9039060  88.8223880   2.8564480  23.9941460  90.2840700   2.4727510
  24.6591880  88.8020550  15.1246840  24.3776150  89.3054150  14.3607660
  25.0411580  88.0042300  14.7588970  31.2607340  88.2174130  15.7027310
  31.1472790  88.5368740  16.5978830  32.0777080  88.6186640  15.4064590
  30.1665490  77.4623110  61.1636010  30.0859540  76.5477720  60.8927720
  29.7529910  77.9590180  60.4575720  28.2983530  79.2402130  63.0445280
  27.5225630  78.7602570  63.3343850  28.9496460  78.5607780  62.8701440
  22.3149360  79.5521940  63.9221040  21.4834240  79.2970650  64.3217550
  22.9230340  79.6232710  64.6578960  32.3190960  83.6462320  61.8244410
  31.8572490  82.8749560  62.1531580  33.1316510  83.6728390  62.3296860
  22.2950620  83.5862030  64.1179060  22.5978660  82.6959770  63.9389280
  23.0394210  84.1432250  63.8901310  20.7241310  74.5123830  57.7063430
  19.8358010  74.8539800  57.6043310  21.0082500  74.3124150  56.8144260
  18.6874320  77.1129480  63.5903130  19.2590430  76.3451680  63.5906770
  18.6875860  77.4118240  62.6809740  28.5454270  85.9320330  61.4448400
  27.9265710  86.3877830  60.8742840  29.4006050  86.0871790  61.0438100
  27.7392520  81.9159320  63.0515440  27.6700800  80.9749260  62.8904570
  28.5012380  82.0060730  63.6238010  19.9299190  72.5213840  65.3772060
  19.7502030  71.6239590  65.6574820  19.5279270  73.0685710  66.0519010
  28.7697690  74.7229700  63.2784370  29.1462510  73.8501580  63.1658040
  28.6717200  75.0588400  62.3874810  22.9002700  73.0955330  58.7401810
  23.0069450  73.9959060  59.0470570  21.9895060  73.0473300  58.4496460
  32.5521810  72.2180140  60.2112710  33.3731430  71.7276710  60.2538190
  32.5855890  72.8077800  60.9644550  20.5485860  75.0174340  63.9854400
  21.2295970  75.2812710  64.6041800  20.2333910  74.1775210  64.3192410
  24.7410430  76.0641700  63.0726990  25.2488650  76.5622670  63.7132010
  25.2723670  75.2876900  62.8966350  36.8421360  74.2346890  66.7756340
  36.1373530  74.6228600  66.2571450  37.1079280  74.9297180  67.3777270
  23.0246530  70.7040260  67.3390410  23.0264970  71.2212650  66.5336310
  22.1950840  70.2270440  67.3160340  29.4117620  80.8159570  58.8380310
  28.7934890  81.2809020  58.2743030  29.9240870  81.5087050  59.2549820
  24.2749380  80.3435440  65.5163910  23.9418760  80.9704360  66.1584980
  24.4516060  80.8697320  64.7365580  32.7883290  74.1580520  62.9840250
  32.0838860  74.4465410  63.5643360  33.1495450  74.9680630  62.6239810
  22.7061860  72.4150220  65.3460860  23.0478670  73.2592270  65.0514730
  21.7677670  72.5633960  65.4626200  23.4868480  82.3116240  67.3313090
  24.1042480  82.9867320  67.0497540  22.6261600  82.7204220  67.2400590
  18.7800820  81.5016100  56.2119940  18.4028800  81.9903200  55.4804840
  19.0373890  82.1741380  56.8426470  34.4046070  83.7755650  65.2467730
  33.7209590  84.4454760  65.2384400  34.9440360  83.9736300  64.4812590
  35.8570210  73.6035310  63.3749460  34.9095120  73.6374290  63.5064890
  36.1820200  74.4174260  63.7598820  26.3889750  69.9032490  61.6705450
  26.6964730  69.3479380  60.9540950  25.4590450  70.0376950  61.4878440
  31.9404810  85.6199780  63.9612910  31.9531970  85.2162070  63.0935170
  31.3880030  86.3947070  63.8574340  33.2350230  82.3416000  59.0503080
  33.1246560  81.3990330  59.1752500  33.2318480  82.7031640  59.9365840
  31.3390250  80.5229620  65.2895520  31.7559040  80.3089730  64.4548980
  32.0630070  80.7802410  65.8604140  28.7770510  77.9681320  58.4065570
  27.8499790  77.9018700  58.6354040  28.9295330  78.9061450  58.2920810
  28.7639590  74.2398320  55.4032730  27.8243260  74.4012280  55.4885190
  29.0822850  74.9584000  54.8568720  35.2852350  78.9216840  65.3811760
  34.4570980  78.9909930  64.9061890  35.8802830  79.5071150  64.9127590
  32.8067800  79.5301620  58.9100820  32.1880220  79.1921170  58.2627120
  32.7892250  78.8861380  59.6180010  32.2494360  75.7086160  66.3266630
  31.8365540  76.5339870  66.5806620  31.5170310  75.1231200  66.1342990
  24.3827150  78.4946060  61.1885300  23.9784150  77.7823310  60.6931200
  24.4690270  78.1499300  62.0773340  24.8508850  82.1813620  63.3524510
  24.5537140  81.5759090  62.6732290  25.8008670  82.2190930  63.2413870
  23.0955770  75.2689270  64.9684340  23.6470360  75.3784610  64.1937590
  23.6099280  75.6426870  65.6839570  32.9394460  85.7545490  67.0147610
  32.4625020  86.5617680  66.8220220  32.2556250  85.1023820  67.1673820
  30.9832500  78.7688430  55.9173570  31.4225780  77.9310860  55.7711390
  31.6960920  79.4017830  56.0037710  29.0927880  83.7084500  59.8854810
  29.5323790  84.4508830  59.4710200  29.0314770  83.9511070  60.8093770
  34.5649640  70.0231240  54.2314610  34.2522300  70.1158070  55.1313680
  35.3262110  70.6012270  54.1812040  21.0831780  77.3891040  58.6891950
  20.9629380  78.1153130  58.0773220  20.7732670  76.6193950  58.2119860
  18.7217150  80.5606180  64.4960590  18.7997570  80.6954950  63.5516310
  19.3358830  79.8522070  64.6888710  19.9664780  82.2606370  60.9066770
  19.5592860  82.4020960  60.0520370  20.8577790  81.9766530  60.7037980
  31.7598060  86.6953620  57.2417820  31.5999200  86.4056560  58.1399650
  31.5944770  85.9193750  56.7063050  24.2386440  86.4752150  59.0189440
  24.0628920  85.5587690  58.8057240  23.3842180  86.8339440  59.2587240
  31.4624190  84.2041180  55.8015820  30.7689350  84.2018470  55.1418100
  32.2047050  83.7800500  55.3709990  31.0274120  85.8303890  59.8764310
  31.4831070  85.0493270  60.1902930  31.3666640  86.5410710  60.4205490
  18.7776670  81.6020350  67.0355050  18.9407710  81.1325710  66.2174420
  19.2429120  81.0943910  67.7003890  23.5495440  70.7326110  62.0715620
  23.1063590  71.5135650  61.7400140  24.1080430  71.0556000  62.7786560
  26.6654260  70.3536810  56.9521450  26.0408440  70.3496680  57.6774760
  26.5784380  69.4867770  56.5557420  25.5871340  71.2773440  63.9305220
  25.8843670  72.1836270  63.8497240  26.1356900  70.7892220  63.3164790
  23.3409660  75.8559680  59.7996870  23.1150580  75.6396850  60.7043490
  22.5602190  76.2888140  59.4542840  30.5707420  75.8623050  58.3987520
  29.9716310  76.5858850  58.2151140  31.1187030  75.7999830  57.6163970
  29.1772290  74.4986590  60.4290800  29.5701860  74.8158790  59.6159490
  29.5389140  73.6198470  60.5435320  18.2136460  71.0887390  62.6521000
  17.9249510  71.6590250  63.3645980  18.9582220  70.6091840  63.0152230
  18.4006690  75.0307510  53.8623720  18.3181360  75.9738270  54.0038710
  18.0489750  74.8882420  52.9836070  29.7627430  77.0892340  64.5241580
  29.0308550  77.5979150  64.8731680  29.3651770  76.2722320  64.2230360
  26.2004820  73.7646540  62.9294070  26.2040880  73.3236490  62.0798610
  27.0955940  74.0863870  63.0365890  22.0507200  73.6473030  61.8888280
  21.7107250  74.1248260  62.6455330  21.2884520  73.1938150  61.5289380
  26.2624970  74.7658620  55.9200830  26.3837790  74.7245100  56.8686650
  25.8773480  75.6282770  55.7647560  30.2253340  72.5426020  63.9364520
  30.2426080  72.9934670  64.7806370  29.9768920  71.6431660  64.1497960
  25.2746470  77.0759760  55.3184130  24.7063370  76.6278010  54.6920040
  25.9835470  77.4352540  54.7849280  26.5012790  77.8248320  64.6759480
  26.8682920  77.3506890  65.4220820  26.3117850  78.6989890  65.0167820
  19.3653280  72.5692010  60.8052950  19.0800200  72.2047680  61.6431570
  19.3032140  71.8372470  60.1916090  24.2912160  76.8656960  66.9943690
  23.9869230  77.7448940  67.2194050  25.2458620  76.9256750  67.0301130
  22.8193950  81.0717950  57.5910540  22.0456210  80.5315570  57.4309260
  23.5488580  80.5524560  57.2528300  33.5781930  80.0683310  63.3836930
  34.2981050  80.5638600  62.9933040  33.3763750  79.3901200  62.7390800
  29.0391870  71.4621270  57.5266320  28.2256480  70.9634440  57.4511630
  28.8453820  72.3019520  57.1102670  31.7540260  75.8340920  55.8228480
  32.6419880  76.1458150  55.6479820  31.7245350  74.9613170  55.4309060
  22.8631350  80.7398330  61.2289350  23.3810020  79.9366590  61.1746240
  22.4115370  80.6777470  62.0706180  27.7500850  82.0064610  56.5016650
  28.0916550  82.7506840  56.0059970  26.9213560  82.3195730  56.8641480
  34.0254530  77.1452760  55.2908340  33.9418250  77.5766980  54.4404780
  34.7448720  77.6051110  55.7235160  35.0541780  83.9995020  58.0190470
  34.4117940  83.3450640  58.2934190  34.6672440  84.4050110  57.2431140
  30.6328260  81.3280450  61.8662160  30.9852080  80.7308580  61.2063530
  29.7490590  81.0024680  62.0370410  26.7191540  82.0878140  59.2732570
  27.4062670  82.6347350  59.6540160  25.9323960  82.6318870  59.3082180
  18.8583940  77.7050960  54.7649650  19.7278790  77.9875760  55.0485570
  18.3674260  78.5186830  54.6498460  26.0218750  79.0924170  58.8857930
  26.4781530  79.9029420  59.1118120  25.6706960  78.7747310  59.7176420
  28.3251360  84.6030510  66.1150230  28.9693580  84.8089890  66.7923650
  28.6880800  83.8418910  65.6621080  21.9230530  69.4361820  59.3580450
  21.7945160  69.4279720  60.3065370  21.0992550  69.7744910  59.0071460
  29.5983440  82.6062860  64.8327680  30.2405670  81.9056020  64.9459850
  30.1232790  83.3861300  64.6524570  33.4439160  82.8911480  54.5566820
  33.2176740  82.1741920  55.1491460  33.0535360  82.6423920  53.7188570
  19.2255190  86.9178340  55.3311280  19.5852830  87.5167680  54.6768550
  19.0847530  87.4638230  56.1046310  33.0255410  80.8083420  56.2180980
  32.7377110  81.2696110  57.0058860  33.8207580  80.3481190  56.4865200
  25.2423810  84.3009540  56.1484950  25.2333910  85.0339230  55.5329460
  24.3222170  84.0541120  56.2411910  20.8430450  79.5224430  56.8931710
  20.2358400  80.2623330  56.9027010  21.3179800  79.6123790  56.0669910
  30.4163240  73.6875250  66.5688600  30.7844060  72.8670460  66.8968170
  29.5561440  73.7477140  66.9844250  33.7825270  72.6432190  57.3776160
  33.1538430  72.7477860  56.6634390  33.2877190  72.8628970  58.1670040
  28.2283410  84.3637780  54.8110140  28.3295390  84.1601770  53.8812120
  27.3285150  84.1096060  55.0157920  25.7509300  74.9218140  58.7934040
  25.0425450  75.3904480  59.2347650  26.0353780  74.2640150  59.4279230
  27.3765230  76.3414840  66.7926570  27.8750480  76.8160660  67.4578420
  27.5188180  75.4178360  66.9996600  29.7824730  71.6468800  60.2329830
  29.6592510  71.6654930  59.2839340  30.7309290  71.6947740  60.3528230
  26.8701520  86.8824100  59.5057810  27.1243020  86.8445490  58.5837180
  25.9214000  86.7557430  59.4986060  23.9544320  73.2303220  56.1684750
  24.8034850  73.6673370  56.1024940  23.5875590  73.5423480  56.9956810
  32.8754100  77.8015980  61.0816320  31.9344240  77.8166210  61.2564010
  33.1898170  77.0151940  61.5276620  22.8535740  79.4835580  54.6420280
  23.6199010  79.3716940  55.2045710  22.9310430  78.7873550  53.9897050
  21.5482500  76.9160650  55.3253170  21.6286090  75.9688160  55.4370570
  22.4402250  77.2467530  55.4313830  34.8779680  84.9724830  62.7570580
  35.0027100  85.7956000  63.2294390  35.7445240  84.7615560  62.4094730
  22.3497210  87.0656040  62.4287710  23.0859690  86.5171500  62.6996280
  22.7338130  87.9312050  62.2893700  19.2342690  83.1329610  58.3029220
  18.3082470  83.3750750  58.2934630  19.6999120  83.9603870  58.1813970
  25.4599520  86.2386350  54.2513280  26.2528130  86.5275180  53.7995070
  24.9403870  85.8078520  53.5725760  34.5129690  85.4656480  55.6750020
  34.2271200  85.0521620  54.8604200  34.3149240  86.3944190  55.5550540
  25.9776920  81.4589760  54.1155630  25.8727560  80.8442110  54.8417010
  25.8101140  80.9355650  53.3318640  29.2179650  80.5209790  54.7197620
  28.6689750  80.9679090  55.3640360  29.8398910  80.0159040  55.2435290
  24.8854770  79.4800710  56.6162920  25.3071190  79.3140580  57.4594310
  25.0105610  78.6700940  56.1218060  27.3982410  78.5038320  53.8640020
  27.9188070  77.7887340  53.4981170  28.0450810  79.1424190  54.1640530
  26.3015930  70.9832870  66.5358580  25.8533230  71.0057130  65.6904130
  25.6681130  70.5851890  67.1328880  26.7075480  79.8787200  67.1571020
  27.1263590  80.7219930  66.9847260  25.7884110  80.0159240  66.9277800
  31.3827280  78.1640570  67.1171370  30.8562500  78.6883190  66.5136510
  31.7258620  78.7967960  67.7481100  23.7813670  75.5533940  53.5621080
  23.5802730  74.6901300  53.9234420  23.6105720  75.4667300  52.6242680
  31.2601980  70.3642170  56.0907960  31.5404270  69.5210070  56.4467380
  30.4867710  70.5965280  56.6046710  22.5796470  72.6534560  53.5498960
  22.8822370  72.6601990  52.6418110  23.3191060  72.3032420  54.0466620
  25.7981400  71.5969180  54.5355160  25.4503400  70.9193170  53.9557610
  25.9994170  71.1358690  55.3498550  27.9630440  86.5849930  56.1541760
  28.8581230  86.9234900  56.1760520  27.9948070  85.8629340  55.5266040
  21.6026600  81.9576980  54.3828760  22.0401470  82.5006650  55.0386340
  22.0874330  81.1323930  54.3925100  18.8172400  84.7466010  61.8349020
  19.1475410  83.8787070  61.6027660  19.2463400  84.9524530  62.6653980
  23.4134320  83.0775020  59.4950990  23.1129860  82.9539990  60.3954900
  23.3071810  82.2183610  59.0866720  19.3062610  85.6136600  64.5730650
  18.8693600  85.7937400  65.4054800  19.8740290  86.3711220  64.4312370
  36.1826240  82.8571420  54.1977670  35.3519200  82.9248070  54.6684900
  36.3598070  83.7475540  53.8944530  35.6382700  79.6018900  56.7011870
  36.4001610  80.1715550  56.8071560  35.6537070  79.0346100  57.4720180
  19.1387040  78.1256830  60.9319530  18.4835880  77.8568470  60.2879230
  19.9764990  78.0161310  60.4821510  36.6442670  80.4569000  61.5453800
  37.0151500  79.6736320  61.1389770  37.2844600  81.1458100  61.3671100
  33.6276430  81.8405580  66.9584120  32.8136270  82.2702740  67.2209910
  34.0350630  82.4523990  66.3453170  35.6901870  79.8953270  53.8584390
  35.9650710  80.8032150  53.7303610  35.5012610  79.8315800  54.7946380
  32.0877480  72.9198120  55.1538020  32.5062360  72.7329100  54.3134680
  31.7813540  72.0677170  55.4640950  35.5867210  77.8322260  58.8513820
  35.2110810  77.0650190  58.4195110  34.8570330  78.2144960  59.3388750
  20.1762970  78.5109400  65.4722870  20.5436010  78.4236800  66.3518890
  19.6073790  77.7475950  65.3729730  18.3525120  75.3355760  56.8744860
  17.4489200  75.5985960  56.6996520  18.8365740  75.6066930  56.0944820
  34.8618170  76.0579750  62.1521060  35.3855650  75.5642400  61.5211230
  35.4477590  76.1930110  62.8968630  35.0407890  76.1419620  65.6740610
  34.0910600  76.1083160  65.7885600  35.2220900  77.0519730  65.4390380
  20.8952330  74.3921300  54.7839240  21.6044030  73.9704520  54.2986520
  20.1792270  74.4596530  54.1522590  20.5426490  70.4460630  53.8241890
  21.2654620  70.9869570  54.1423110  20.8151010  70.1724050  52.9483430
  34.3518140  75.3153100  58.0913470  34.8477260  75.0823970  58.8762350
  34.1534210  74.4764940  57.6751110  20.2318680  69.6966820  63.7264510
  20.8794870  69.1464200  63.2859670  20.6520520  69.9509970  64.5480320
  35.7805300  73.9514050  60.6251150  35.6704580  73.7970090  61.5633420
  36.5412890  73.4234990  60.3826560  34.1271020  69.8908180  67.0834150
  34.7643240  70.5042320  67.4493340  34.2745910  69.9268840  66.1383380
  36.6695570  71.7821970  53.8657290  37.5944880  71.6503150  53.6575580
  36.6471360  71.8614790  54.8193740  36.7434060  72.5532630  56.4914000
  35.9485560  72.4877750  57.0206910  36.9477340  73.4883270  56.4799350
  33.6852480  86.5924180  60.4852390  34.2811550  86.2708750  59.8086810
  33.9430630  86.1196000  61.2765660  19.9850680  69.8522490  66.4689830
  19.6365500  70.3086310  67.2348010  19.6538380  68.9579620  66.5512260
  25.2921080  84.5801680  66.2352740  25.0512440  84.8476240  65.3483260
  26.2323720  84.7507410  66.2903600  36.5525240  86.5996060  67.0363380
  36.0583520  86.9964930  66.3190510  35.9438530  85.9745270  67.4300660
  30.8758100  69.2636570  65.9570830  30.0017940  69.5971680  65.7543760
  30.7668850  68.7909750  66.7822700  31.7830080  71.4707440  67.3412550
  31.4543440  70.6559200  66.9614280  32.7312380  71.4277250  67.2178240
  34.2364690  87.2419480  64.3150120  33.7767660  87.9935290  63.9408140
  33.6077150  86.5225950  64.2564920  21.0615310  83.3362720  66.7048840
  20.3349370  82.7168010  66.6374790  21.1224460  83.7303330  65.8346920
  24.6660410  85.5507720  63.4898250  25.1825430  84.9395080  62.9646510
  25.3157790  86.0536500  63.9809260  27.4055910  86.4416210  64.3167230
  27.6933720  86.1870510  63.4400240  27.9179130  85.8893570  64.9072800
  28.6232920  70.1806410  64.8963740  27.8404710  70.6551910  65.1760500
  28.3295850  69.2761240  64.7876920  33.1753990  70.8829510  62.9412830
  33.6162080  70.8274610  62.0934430  32.9061580  71.7987520  63.0123010
  35.0392560  70.5144750  60.9521650  34.9780960  69.5705970  60.8052670
  35.8184590  70.6224840  61.4975110  19.3445310  86.6537110  59.9145600
  19.1767350  86.0207790  60.6127490  18.4779820  86.8596510  59.5639790
  19.9673330  70.4853890  57.4177460  20.7252690  70.5982770  56.8441490
  19.5050500  71.3223090  57.3720890  26.5087140  72.5993160  60.4079770
  25.6961650  72.2250050  60.0675650  27.0128780  71.8438240  60.7100960
  31.0112120  69.2635610  61.6462840  31.6141490  69.8355820  62.1211360
  30.2705110  69.8275050  61.4236740  34.1546720  69.6657170  56.9203120
  34.3497350  70.5640620  57.1870550  33.3676590  69.4344250  57.4136070
  20.9508010  85.3470340  57.3595740  20.4255630  85.7278370  56.6557700
  20.8752590  85.9721110  58.0805450  22.3398480  71.0117940  55.9579430
  22.8691240  70.2247740  55.8287380  22.9726800  71.6909130  56.1914960
  24.5336320  70.7493080  59.0124820  23.9039060  70.0480390  59.1794950
  23.9941460  71.5097210  58.7957980  35.7073330  86.9057880  58.6809680
  35.8825520  86.2195620  58.0370600  35.0094900  87.4304930  58.2886350
  23.5500980  87.2952720  56.2344990  24.2819800  87.0112000  55.6868880
  23.8094650  87.0566000  57.1244370  22.7115770  83.4117450  56.2391320
  22.0824650  83.8802550  56.7877150  22.8263600  82.5666670  56.6737510
  30.1665490  77.4623110  42.3892520  30.0859540  76.5477720  42.1184230
  29.7529910  77.9590180  41.6832230  28.2983530  79.2402130  44.2701790
  27.5225630  78.7602570  44.5600360  28.9496460  78.5607780  44.0957950
  22.3149360  79.5521940  45.1477550  21.4834240  79.2970650  45.5474060
  22.9230340  79.6232710  45.8835470  32.3190960  83.6462320  43.0500920
  31.8572490  82.8749560  43.3788090  33.1316510  83.6728390  43.5553370
  22.2950620  83.5862030  45.3435570  22.5978660  82.6959770  45.1645790
  23.0394210  84.1432250  45.1157820  20.7241310  74.5123830  38.9319940
  19.8358010  74.8539800  38.8299820  21.0082500  74.3124150  38.0400770
  18.6874320  77.1129480  44.8159640  19.2590430  76.3451680  44.8163280
  18.6875860  77.4118240  43.9066250  28.5454270  85.9320330  42.6704910
  27.9265710  86.3877830  42.0999350  29.4006050  86.0871790  42.2694610
  27.7392520  81.9159320  44.2771950  27.6700800  80.9749260  44.1161080
  28.5012380  82.0060730  44.8494520  19.9299190  72.5213840  46.6028570
  19.7502030  71.6239590  46.8831330  19.5279270  73.0685710  47.2775520
  28.7697690  74.7229700  44.5040880  29.1462510  73.8501580  44.3914550
  28.6717200  75.0588400  43.6131320  22.9002700  73.0955330  39.9658320
  23.0069450  73.9959060  40.2727080  21.9895060  73.0473300  39.6752970
  32.5521810  72.2180140  41.4369220  33.3731430  71.7276710  41.4794700
  32.5855890  72.8077800  42.1901060  20.5485860  75.0174340  45.2110910
  21.2295970  75.2812710  45.8298310  20.2333910  74.1775210  45.5448920
  24.7410430  76.0641700  44.2983500  25.2488650  76.5622670  44.9388520
  25.2723670  75.2876900  44.1222860  36.8421360  74.2346890  48.0012850
  36.1373530  74.6228600  47.4827960  37.1079280  74.9297180  48.6033780
  23.0246530  70.7040260  48.5646920  23.0264970  71.2212650  47.7592820
  22.1950840  70.2270440  48.5416850  29.4117620  80.8159570  40.0636820
  28.7934890  81.2809020  39.4999540  29.9240870  81.5087050  40.4806330
  24.2749380  80.3435440  46.7420420  23.9418760  80.9704360  47.3841490
  24.4516060  80.8697320  45.9622090  32.7883290  74.1580520  44.2096760
  32.0838860  74.4465410  44.7899870  33.1495450  74.9680630  43.8496320
  22.7061860  72.4150220  46.5717370  23.0478670  73.2592270  46.2771240
  21.7677670  72.5633960  46.6882710  23.4868480  82.3116240  48.5569600
  24.1042480  82.9867320  48.2754050  22.6261600  82.7204220  48.4657100
  18.7800820  81.5016100  37.4376450  18.4028800  81.9903200  36.7061350
  19.0373890  82.1741380  38.0682980  34.4046070  83.7755650  46.4724240
  33.7209590  84.4454760  46.4640910  34.9440360  83.9736300  45.7069100
  35.8570210  73.6035310  44.6005970  34.9095120  73.6374290  44.7321400
  36.1820200  74.4174260  44.9855330  26.3889750  69.9032490  42.8961960
  26.6964730  69.3479380  42.1797460  25.4590450  70.0376950  42.7134950
  31.9404810  85.6199780  45.1869420  31.9531970  85.2162070  44.3191680
  31.3880030  86.3947070  45.0830850  33.2350230  82.3416000  40.2759590
  33.1246560  81.3990330  40.4009010  33.2318480  82.7031640  41.1622350
  31.3390250  80.5229620  46.5152030  31.7559040  80.3089730  45.6805490
  32.0630070  80.7802410  47.0860650  28.7770510  77.9681320  39.6322080
  27.8499790  77.9018700  39.8610550  28.9295330  78.9061450  39.5177320
  28.7639590  74.2398320  36.6289240  27.8243260  74.4012280  36.7141700
  29.0822850  74.9584000  36.0825230  35.2852350  78.9216840  46.6068270
  34.4570980  78.9909930  46.1318400  35.8802830  79.5071150  46.1384100
  32.8067800  79.5301620  40.1357330  32.1880220  79.1921170  39.4883630
  32.7892250  78.8861380  40.8436520  32.2494360  75.7086160  47.5523140
  31.8365540  76.5339870  47.8063130  31.5170310  75.1231200  47.3599500
  24.3827150  78.4946060  42.4141810  23.9784150  77.7823310  41.9187710
  24.4690270  78.1499300  43.3029850  24.8508850  82.1813620  44.5781020
  24.5537140  81.5759090  43.8988800  25.8008670  82.2190930  44.4670380
  23.0955770  75.2689270  46.1940850  23.6470360  75.3784610  45.4194100
  23.6099280  75.6426870  46.9096080  32.9394460  85.7545490  48.2404120
  32.4625020  86.5617680  48.0476730  32.2556250  85.1023820  48.3930330
  23.9427280  81.9195310  51.2288820  23.0455810  82.1435280  51.4762220
  23.9680150  82.0430250  50.2800220  30.9832500  78.7688430  37.1430080
  31.4225780  77.9310860  36.9967900  31.6960920  79.4017830  37.2294220
  22.7698500  78.7908630  49.8046190  22.6306270  79.6631430  50.1733590
  21.8879860  78.4481440  49.6594130  29.0927880  83.7084500  41.1111320
  29.5323790  84.4508830  40.6966710  29.0314770  83.9511070  42.0350280
  24.5678850  84.7330330  52.0131340  24.5394280  85.1373280  51.1459770
  24.4043820  83.8040690  51.8502940  21.0831780  77.3891040  39.9148460
  20.9629380  78.1153130  39.3029730  20.7732670  76.6193950  39.4376370
  36.5193670  85.5157430  53.3095510  36.9953390  85.9940320  53.9884590
  37.1400830  85.4474920  52.5841010  18.7217150  80.5606180  45.7217100
  18.7997570  80.6954950  44.7772820  19.3358830  79.8522070  45.9145220
  19.9664780  82.2606370  42.1323280  19.5592860  82.4020960  41.2776880
  20.8577790  81.9766530  41.9294490  35.9226920  82.7070280  50.4695520
  36.0489980  82.4682160  49.5512700  35.9648300  81.8754820  50.9417600
  29.7843660  86.4098280  49.0390330  30.2988330  86.3206290  49.8412760
  28.9412740  86.7557980  49.3318240  31.7598060  86.6953620  38.4674330
  31.5999200  86.4056560  39.3656160  31.5944770  85.9193750  37.9319560
  24.2386440  86.4752150  40.2445950  24.0628920  85.5587690  40.0313750
  23.3842180  86.8339440  40.4843750  31.4624190  84.2041180  37.0272330
  30.7689350  84.2018470  36.3674610  32.2047050  83.7800500  36.5966500
  31.0274120  85.8303890  41.1020820  31.4831070  85.0493270  41.4159440
  31.3666640  86.5410710  41.6462000  35.7750930  74.7602740  51.4345260
  35.1595200  75.2682410  50.9060720  35.4547350  73.8601070  51.3771200
  18.7776670  81.6020350  48.2611560  18.9407710  81.1325710  47.4430930
  19.2429120  81.0943910  48.9260400  23.5495440  70.7326110  43.2972130
  23.1063590  71.5135650  42.9656650  24.1080430  71.0556000  44.0043070
  27.8365250  73.5994630  48.9007450  27.3744620  73.8077650  49.7127390
  27.4343360  72.7853980  48.5978120  32.8369760  74.8203580  50.0304110
  31.9863350  74.5209330  50.3513180  32.6771550  75.0645590  49.1187930
  29.9319470  76.3205330  52.1302900  30.2572880  75.4869080  51.7905130
  30.7199800  76.8433850  52.2781230  26.6654260  70.3536810  38.1777960
  26.0408440  70.3496680  38.9031270  26.5784380  69.4867770  37.7813930
  25.5871340  71.2773440  45.1561730  25.8843670  72.1836270  45.0753750
  26.1356900  70.7892220  44.5421300  23.3409660  75.8559680  41.0253380
  23.1150580  75.6396850  41.9300000  22.5602190  76.2888140  40.6799350
  30.5707420  75.8623050  39.6244030  29.9716310  76.5858850  39.4407650
  31.1187030  75.7999830  38.8420480  25.7808870  76.7545260  51.6913650
  25.6852470  75.8139990  51.5414050  26.6240850  76.9760330  51.2961720
  29.1772290  74.4986590  41.6547310  29.5701860  74.8158790  40.8416000
  29.5389140  73.6198470  41.7691830  20.9119410  73.1658930  49.8447430
  20.5182800  74.0134140  50.0520210  20.2237810  72.5285300  50.0356070
  27.4864460  73.2493900  52.9144170  26.7962780  73.0566100  53.5490260
  28.2296760  73.5328540  53.4468470  18.2136460  71.0887390  43.8777510
  17.9249510  71.6590250  44.5902490  18.9582220  70.6091840  44.2408740
  18.4006690  75.0307510  35.0880230  18.3181360  75.9738270  35.2295220
  18.0489750  74.8882420  34.2092580  29.7627430  77.0892340  45.7498090
  29.0308550  77.5979150  46.0988190  29.3651770  76.2722320  45.4486870
  26.2004820  73.7646540  44.1550580  26.2040880  73.3236490  43.3055120
  27.0955940  74.0863870  44.2622400  22.0507200  73.6473030  43.1144790
  21.7107250  74.1248260  43.8711840  21.2884520  73.1938150  42.7545890
  26.2624970  74.7658620  37.1457340  26.3837790  74.7245100  38.0943160
  25.8773480  75.6282770  36.9904070  30.2253340  72.5426020  45.1621030
  30.2426080  72.9934670  46.0062880  29.9768920  71.6431660  45.3754470
  25.2746470  77.0759760  36.5440640  24.7063370  76.6278010  35.9176550
  25.9835470  77.4352540  36.0105790  33.6524090  69.9558200  51.0007410
  33.9769860  69.2247860  51.5265390  33.6880600  69.6371840  50.0988400
  20.3515650  80.9771780  50.4207370  19.9670440  80.3365450  51.0190330
  20.6627840  81.6807900  50.9902100  26.5012790  77.8248320  45.9015990
  26.8682920  77.3506890  46.6477330  26.3117850  78.6989890  46.2424330
  19.3653280  72.5692010  42.0309460  19.0800200  72.2047680  42.8688080
  19.3032140  71.8372470  41.4172600  24.2912160  76.8656960  48.2200200
  23.9869230  77.7448940  48.4450560  25.2458620  76.9256750  48.2557640
  22.8193950  81.0717950  38.8167050  22.0456210  80.5315570  38.6565770
  23.5488580  80.5524560  38.4784810  33.5781930  80.0683310  44.6093440
  34.2981050  80.5638600  44.2189550  33.3763750  79.3901200  43.9647310
  29.0391870  71.4621270  38.7522830  28.2256480  70.9634440  38.6768140
  28.8453820  72.3019520  38.3359180  28.9600730  80.1392370  50.4962440
  28.8938040  79.2188040  50.2420030  28.3305870  80.2367810  51.2107080
  31.7540260  75.8340920  37.0484990  32.6419880  76.1458150  36.8736330
  31.7245350  74.9613170  36.6565570  22.8631350  80.7398330  42.4545860
  23.3810020  79.9366590  42.4002750  22.4115370  80.6777470  43.2962690
  27.7500850  82.0064610  37.7273160  28.0916550  82.7506840  37.2316480
  26.9213560  82.3195730  38.0897990  20.3475890  77.7059700  49.3671560
  19.9890830  78.3713550  49.9544900  20.0530450  76.8743250  49.7384180
  23.5489010  78.1643940  52.2511110  23.2489150  78.3101120  51.3538930
  24.3200250  77.6049230  52.1584500  28.8917460  82.9612940  50.2466240
  28.9062000  82.0293900  50.0285150  28.1842560  83.0472700  50.8856010
  34.0254530  77.1452760  36.5164850  33.9418250  77.5766980  35.6661290
  34.7448720  77.6051110  36.9491670  35.1028670  79.6020280  49.5934820
  34.3776860  80.1949060  49.3964210  35.6304130  79.5943820  48.7948190
  35.0541780  83.9995020  39.2446980  34.4117940  83.3450640  39.5190700
  34.6672440  84.4050110  38.4687650  30.6328260  81.3280450  43.0918670
  30.9852080  80.7308580  42.4320040  29.7490590  81.0024680  43.2626920
  26.7191540  82.0878140  40.4989080  27.4062670  82.6347350  40.8796670
  25.9323960  82.6318870  40.5338690  18.8583940  77.7050960  35.9906160
  19.7278790  77.9875760  36.2742080  18.3674260  78.5186830  35.8754970
  26.0218750  79.0924170  40.1114440  26.4781530  79.9029420  40.3374630
  25.6706960  78.7747310  40.9432930  28.3251360  84.6030510  47.3406740
  28.9693580  84.8089890  48.0180160  28.6880800  83.8418910  46.8877590
  21.9230530  69.4361820  40.5836960  21.7945160  69.4279720  41.5321880
  21.0992550  69.7744910  40.2327970  29.5983440  82.6062860  46.0584190
  30.2405670  81.9056020  46.1716360  30.1232790  83.3861300  45.8781080
  33.4439160  82.8911480  35.7823330  33.2176740  82.1741920  36.3747970
  33.0535360  82.6423920  34.9445080  31.3721060  83.4057760  49.2620250
  31.7077300  83.9924450  49.9398170  30.4521400  83.2750470  49.4918040
  19.2255190  86.9178340  36.5567790  19.5852830  87.5167680  35.9025060
  19.0847530  87.4638230  37.3302820  18.9224460  71.1952940  50.0443660
  18.2082980  71.3949860  50.6496270  19.3419500  70.4192510  50.4158460
  33.0255410  80.8083420  37.4437490  32.7377110  81.2696110  38.2315370
  33.8207580  80.3481190  37.7121710  19.2097050  85.1833200  51.0310190
  19.3188170  84.2427940  50.8905580  18.5577610  85.4487950  50.3823920
  27.2009640  83.4549090  52.4308310  26.8806510  82.7358330  52.9754000
  26.5268000  84.1304160  52.5044370  25.2423810  84.3009540  37.3741460
  25.2333910  85.0339230  36.7585970  24.3222170  84.0541120  37.4668420
  20.8430450  79.5224430  38.1188220  20.2358400  80.2623330  38.1283520
  21.3179800  79.6123790  37.2926420  30.4163240  73.6875250  47.7945110
  30.7844060  72.8670460  48.1224680  29.5561440  73.7477140  48.2100760
  33.7825270  72.6432190  38.6032670  33.1538430  72.7477860  37.8890900
  33.2877190  72.8628970  39.3926550  28.2283410  84.3637780  36.0366650
  28.3295390  84.1601770  35.1068630  27.3285150  84.1096060  36.2414430
  25.7509300  74.9218140  40.0190550  25.0425450  75.3904480  40.4604160
  26.0353780  74.2640150  40.6535740  27.3765230  76.3414840  48.0183080
  27.8750480  76.8160660  48.6834930  27.5188180  75.4178360  48.2253110
  29.7824730  71.6468800  41.4586340  29.6592510  71.6654930  40.5095850
  30.7309290  71.6947740  41.5784740  26.8701520  86.8824100  40.7314320
  27.1243020  86.8445490  39.8093690  25.9214000  86.7557430  40.7242570
  23.9544320  73.2303220  37.3941260  24.8034850  73.6673370  37.3281450
  23.5875590  73.5423480  38.2213320  34.5832090  72.5582800  48.8611470
  34.0805690  73.2988200  49.2005280  35.3988750  72.9466800  48.5448260
  32.8754100  77.8015980  42.3072830  31.9344240  77.8166210  42.4820520
  33.1898170  77.0151940  42.7533130  22.8535740  79.4835580  35.8676790
  23.6199010  79.3716940  36.4302220  22.9310430  78.7873550  35.2153560
  21.5482500  76.9160650  36.5509680  21.6286090  75.9688160  36.6627080
  22.4402250  77.2467530  36.6570340  34.8779680  84.9724830  43.9827090
  35.0027100  85.7956000  44.4550900  35.7445240  84.7615560  43.6351240
  22.3497210  87.0656040  43.6544220  23.0859690  86.5171500  43.9252790
  22.7338130  87.9312050  43.5150210  19.2342690  83.1329610  39.5285730
  18.3082470  83.3750750  39.5191140  19.6999120  83.9603870  39.4070480
  21.3555490  86.2502110  52.8429800  22.1568220  86.5714160  53.2565200
  20.8407310  85.8897690  53.5649710  25.4599520  86.2386350  35.4769790
  26.2528130  86.5275180  35.0251580  24.9403870  85.8078520  34.7982270
  30.1920120  82.3581980  52.7905210  29.5858280  82.3813580  52.0500960
  29.8874230  81.6265020  53.3272460  31.6220490  86.0862270  51.4014620
  32.5742240  86.0020290  51.3514860  31.4748710  86.7503980  52.0748410
  34.5129690  85.4656480  36.9006530  34.2271200  85.0521620  36.0860710
  34.3149240  86.3944190  36.7807050  19.0753300  78.7375570  51.7865850
  19.5792320  78.1582850  52.3582080  18.3360720  79.0215800  52.3242220
  25.9776920  81.4589760  35.3412140  25.8727560  80.8442110  36.0673520
  25.8101140  80.9355650  34.5575150  26.1291240  80.1446560  51.3201370
  25.3636910  80.7131560  51.2356040  26.3107200  79.8522770  50.4269600
  29.2179650  80.5209790  35.9454130  28.6689750  80.9679090  36.5896870
  29.8398910  80.0159040  36.4691800  33.2714590  81.8751890  51.8776390
  34.0124060  82.2127650  51.3743850  32.5087270  82.0443950  51.3246160
  21.1076380  76.8805160  52.6815920  21.1481720  76.5819030  53.5901150
  21.9621880  77.2812770  52.5223440  24.8854770  79.4800710  37.8419430
  25.3071190  79.3140580  38.6850820  25.0105610  78.6700940  37.3474570
  23.0482190  75.4597260  50.6490410  22.5178650  74.9688210  50.0213750
  23.7170260  75.8881460  50.1148340  27.3982410  78.5038320  35.0896530
  27.9188070  77.7887340  34.7237680  28.0450810  79.1424190  35.3897040
  31.9460250  79.9266720  50.4131600  32.3601270  80.0811800  51.2622020
  31.0111250  80.0521940  50.5757380  32.4182420  77.2662880  52.4170750
  33.0003190  76.5115200  52.3291230  32.5944190  77.7970320  51.6402230
  23.5354490  72.4259630  50.7287700  23.4411360  71.8080380  50.0038570
  22.9551880  73.1525920  50.5017610  26.3015930  70.9832870  47.7615090
  25.8533230  71.0057130  46.9160640  25.6681130  70.5851890  48.3585390
  26.7075480  79.8787200  48.3827530  27.1263590  80.7219930  48.2103770
  25.7884110  80.0159240  48.1534310  29.0439380  77.6103380  49.7665370
  29.1635590  77.0144520  50.5060210  29.9033380  77.6473070  49.3466670
  31.3827280  78.1640570  48.3427880  30.8562500  78.6883190  47.7393020
  31.7258620  78.7967960  48.9737610  23.7813670  75.5533940  34.7877590
  23.5802730  74.6901300  35.1490930  23.6105720  75.4667300  33.8499190
  24.5582900  86.1840210  49.4985260  24.0203990  86.9086270  49.1793960
  24.8116860  85.7070550  48.7082600  25.8108150  74.1524730  51.0241190
  26.4007840  73.8440580  51.7119010  24.9928390  73.6804480  51.1801090
  30.6301580  73.7690540  51.2574210  29.9417100  73.1072080  51.1924200
  31.3507600  73.3228810  51.7022670  31.2601980  70.3642170  37.3164470
  31.5404270  69.5210070  37.6723890  30.4867710  70.5965280  37.8303220
  22.5796470  72.6534560  34.7755470  22.8822370  72.6601990  33.8674620
  23.3191060  72.3032420  35.2723130  27.4145110  87.4191420  49.7571910
  27.3403810  88.3226560  50.0644280  26.5123950  87.1003320  49.7293980
  25.7981400  71.5969180  35.7611670  25.4503400  70.9193170  35.1814120
  25.9994170  71.1358690  36.5755060  27.9630440  86.5849930  37.3798270
  28.8581230  86.9234900  37.4017030  27.9948070  85.8629340  36.7522550
  21.6026600  81.9576980  35.6085270  22.0401470  82.5006650  36.2642850
  22.0874330  81.1323930  35.6181610  18.8172400  84.7466010  43.0605530
  19.1475410  83.8787070  42.8284170  19.2463400  84.9524530  43.8910490
  23.4134320  83.0775020  40.7207500  23.1129860  82.9539990  41.6211410
  23.3071810  82.2183610  40.3123230  19.3062610  85.6136600  45.7987160
  18.8693600  85.7937400  46.6311310  19.8740290  86.3711220  45.6568880
  34.9424790  85.1153600  50.0864470  34.3426780  85.1746160  49.3428390
  35.0718690  84.1758580  50.2161320  36.1826240  82.8571420  35.4234180
  35.3519200  82.9248070  35.8941410  36.3598070  83.7475540  35.1201040
  35.6382700  79.6018900  37.9268380  36.4001610  80.1715550  38.0328070
  35.6537070  79.0346100  38.6976690  19.1387040  78.1256830  42.1576040
  18.4835880  77.8568470  41.5135740  19.9764990  78.0161310  41.7078020
  36.6442670  80.4569000  42.7710310  37.0151500  79.6736320  42.3646280
  37.2844600  81.1458100  42.5927610  33.6276430  81.8405580  48.1840630
  32.8136270  82.2702740  48.4466420  34.0350630  82.4523990  47.5709680
  35.6901870  79.8953270  35.0840900  35.9650710  80.8032150  34.9560120
  35.5012610  79.8315800  36.0202890  32.0877480  72.9198120  36.3794530
  32.5062360  72.7329100  35.5391190  31.7813540  72.0677170  36.6897460
  35.5867210  77.8322260  40.0770330  35.2110810  77.0650190  39.6451620
  34.8570330  78.2144960  40.5645260  20.1762970  78.5109400  46.6979380
  20.5436010  78.4236800  47.5775400  19.6073790  77.7475950  46.5986240
  34.9766830  76.9793780  49.7109850  34.7452920  76.7506530  48.8107800
  35.2371380  77.8993330  49.6654740  19.7278970  75.4218490  50.6037800
  18.8335020  75.3885250  50.9431510  20.2676520  75.6205280  51.3689050
  33.4154900  72.2050210  52.4889550  34.2925080  72.2133610  52.8723550
  33.4275740  71.4681050  51.8781900  18.3525120  75.3355760  38.1001370
  17.4489200  75.5985960  37.9253030  18.8365740  75.6066930  37.3201330
  34.8618170  76.0579750  43.3777570  35.3855650  75.5642400  42.7467740
  35.4477590  76.1930110  44.1225140  35.0407890  76.1419620  46.8997120
  34.0910600  76.1083160  47.0142110  35.2220900  77.0519730  46.6646890
  20.8952330  74.3921300  36.0095750  21.6044030  73.9704520  35.5243030
  20.1792270  74.4596530  35.3779100  20.5426490  70.4460630  35.0498400
  21.2654620  70.9869570  35.3679620  20.8151010  70.1724050  34.1739940
  34.3518140  75.3153100  39.3169980  34.8477260  75.0823970  40.1018860
  34.1534210  74.4764940  38.9007620  20.2318680  69.6966820  44.9521020
  20.8794870  69.1464200  44.5116180  20.6520520  69.9509970  45.7736830
  35.7805300  73.9514050  41.8507660  35.6704580  73.7970090  42.7889930
  36.5412890  73.4234990  41.6083070  34.1271020  69.8908180  48.3090660
  34.7643240  70.5042320  48.6749850  34.2745910  69.9268840  47.3639890
  36.7434060  72.5532630  37.7170510  35.9485560  72.4877750  38.2463420
  36.9477340  73.4883270  37.7055860  33.6852480  86.5924180  41.7108900
  34.2811550  86.2708750  41.0343320  33.9430630  86.1196000  42.5022170
  19.9850680  69.8522490  47.6946340  19.6365500  70.3086310  48.4604520
  19.6538380  68.9579620  47.7768770  21.5915050  83.0242090  51.8599530
  21.5484680  82.6535000  52.7413990  21.7226060  83.9619660  52.0001350
  25.2921080  84.5801680  47.4609250  25.0512440  84.8476240  46.5739770
  26.2323720  84.7507410  47.5160110  27.4975500  71.0434370  51.2165760
  27.4364390  71.6356200  51.9661170  28.4375880  70.9360330  51.0716020
  30.1350060  70.7004430  50.8558050  30.7490470  71.0183720  50.1939130
  30.6799620  70.2153020  51.4753910  36.5525240  86.5996060  48.2619890
  36.0583520  86.9964930  47.5447020  35.9438530  85.9745270  48.6557170
  20.6571320  69.3798690  50.9697110  21.2054310  69.1986740  50.2063220
  20.7226630  68.5892800  51.5053420  21.4303080  85.9704340  48.9797310
  20.8363400  85.8389040  49.7187350  21.4226920  85.1342480  48.5139410
  30.8758100  69.2636570  47.1827340  30.0017940  69.5971680  46.9800270
  30.7668850  68.7909750  48.0079210  31.7830080  71.4707440  48.5669060
  31.4543440  70.6559200  48.1870790  32.7312380  71.4277250  48.4434750
  34.2364690  87.2419480  45.5406630  33.7767660  87.9935290  45.1664650
  33.6077150  86.5225950  45.4821430  21.0615310  83.3362720  47.9305350
  20.3349370  82.7168010  47.8631300  21.1224460  83.7303330  47.0603430
  24.6660410  85.5507720  44.7154760  25.1825430  84.9395080  44.1903020
  25.3157790  86.0536500  45.2065770  27.4055910  86.4416210  45.5423740
  27.6933720  86.1870510  44.6656750  27.9179130  85.8893570  46.1329310
  28.6232920  70.1806410  46.1220250  27.8404710  70.6551910  46.4017010
  28.3295850  69.2761240  46.0133430  33.1753990  70.8829510  44.1669340
  33.6162080  70.8274610  43.3190940  32.9061580  71.7987520  44.2379520
  35.0392560  70.5144750  42.1778160  34.9780960  69.5705970  42.0309180
  35.8184590  70.6224840  42.7231620  19.3445310  86.6537110  41.1402110
  19.1767350  86.0207790  41.8384000  18.4779820  86.8596510  40.7896300
  19.9673330  70.4853890  38.6433970  20.7252690  70.5982770  38.0698000
  19.5050500  71.3223090  38.5977400  26.5087140  72.5993160  41.6336280
  25.6961650  72.2250050  41.2932160  27.0128780  71.8438240  41.9357470
  31.0112120  69.2635610  42.8719350  31.6141490  69.8355820  43.3467870
  30.2705110  69.8275050  42.6493250  20.9508010  85.3470340  38.5852250
  20.4255630  85.7278370  37.8814210  20.8752590  85.9721110  39.3061960
  22.3398480  71.0117940  37.1835940  22.8691240  70.2247740  37.0543890
  22.9726800  71.6909130  37.4171470  24.5336320  70.7493080  40.2381330
  23.9039060  70.0480390  40.4051460  23.9941460  71.5097210  40.0214490
  27.4728270  87.3632310  52.9091940  28.3995580  87.1276580  52.9527900
  27.4578700  88.1904310  52.4277970  35.7073330  86.9057880  39.9066190
  35.8825520  86.2195620  39.2627110  35.0094900  87.4304930  39.5142860
  24.6591880  70.0277060  52.6733820  24.3776150  70.5310660  51.9094640
  25.0411580  69.2298810  52.3075950  23.5500980  87.2952720  37.4601500
  24.2819800  87.0112000  36.9125390  23.8094650  87.0566000  38.3500880
  22.7115770  83.4117450  37.4647830  22.0824650  83.8802550  38.0133660
  22.8263600  82.5666670  37.8994020  31.2607340  69.4430640  53.2514290
  31.1472790  69.7625250  54.1465810  32.0777080  69.8443150  52.9551570
  34.0405830  86.5902170  52.7332980  34.8331150  86.0951400  52.5258940
  34.3338980  87.2692310  53.3408590  30.1665490  77.4623110  23.6149030
  30.0859540  76.5477720  23.3440740  29.7529910  77.9590180  22.9088740
  28.2983530  79.2402130  25.4958300  27.5225630  78.7602570  25.7856870
  28.9496460  78.5607780  25.3214460  22.3149360  79.5521940  26.3734060
  21.4834240  79.2970650  26.7730570  22.9230340  79.6232710  27.1091980
  32.3190960  83.6462320  24.2757430  31.8572490  82.8749560  24.6044600
  33.1316510  83.6728390  24.7809880  22.2950620  83.5862030  26.5692080
  22.5978660  82.6959770  26.3902300  23.0394210  84.1432250  26.3414330
  20.7241310  74.5123830  20.1576450  19.8358010  74.8539800  20.0556330
  21.0082500  74.3124150  19.2657280  18.6874320  77.1129480  26.0416150
  19.2590430  76.3451680  26.0419790  18.6875860  77.4118240  25.1322760
  28.5454270  85.9320330  23.8961420  27.9265710  86.3877830  23.3255860
  29.4006050  86.0871790  23.4951120  27.7392520  81.9159320  25.5028460
  27.6700800  80.9749260  25.3417590  28.5012380  82.0060730  26.0751030
  19.9299190  72.5213840  27.8285080  19.7502030  71.6239590  28.1087840
  19.5279270  73.0685710  28.5032030  28.7697690  74.7229700  25.7297390
  29.1462510  73.8501580  25.6171060  28.6717200  75.0588400  24.8387830
  22.9002700  73.0955330  21.1914830  23.0069450  73.9959060  21.4983590
  21.9895060  73.0473300  20.9009480  32.5521810  72.2180140  22.6625730
  33.3731430  71.7276710  22.7051210  32.5855890  72.8077800  23.4157570
  20.5485860  75.0174340  26.4367420  21.2295970  75.2812710  27.0554820
  20.2333910  74.1775210  26.7705430  24.7410430  76.0641700  25.5240010
  25.2488650  76.5622670  26.1645030  25.2723670  75.2876900  25.3479370
  36.8421360  74.2346890  29.2269360  36.1373530  74.6228600  28.7084470
  37.1079280  74.9297180  29.8290290  23.0246530  70.7040260  29.7903430
  23.0264970  71.2212650  28.9849330  22.1950840  70.2270440  29.7673360
  29.4117620  80.8159570  21.2893330  28.7934890  81.2809020  20.7256050
  29.9240870  81.5087050  21.7062840  24.2749380  80.3435440  27.9676930
  23.9418760  80.9704360  28.6098000  24.4516060  80.8697320  27.1878600
  32.7883290  74.1580520  25.4353270  32.0838860  74.4465410  26.0156380
  33.1495450  74.9680630  25.0752830  22.7061860  72.4150220  27.7973880
  23.0478670  73.2592270  27.5027750  21.7677670  72.5633960  27.9139220
  23.4868480  82.3116240  29.7826110  24.1042480  82.9867320  29.5010560
  22.6261600  82.7204220  29.6913610  18.7800820  81.5016100  18.6632960
  18.4028800  81.9903200  17.9317860  19.0373890  82.1741380  19.2939490
  34.4046070  83.7755650  27.6980750  33.7209590  84.4454760  27.6897420
  34.9440360  83.9736300  26.9325610  35.8570210  73.6035310  25.8262480
  34.9095120  73.6374290  25.9577910  36.1820200  74.4174260  26.2111840
  26.3889750  69.9032490  24.1218470  26.6964730  69.3479380  23.4053970
  25.4590450  70.0376950  23.9391460  31.9404810  85.6199780  26.4125930
  31.9531970  85.2162070  25.5448190  31.3880030  86.3947070  26.3087360
  33.2350230  82.3416000  21.5016100  33.1246560  81.3990330  21.6265520
  33.2318480  82.7031640  22.3878860  31.3390250  80.5229620  27.7408540
  31.7559040  80.3089730  26.9062000  32.0630070  80.7802410  28.3117160
  28.7770510  77.9681320  20.8578590  27.8499790  77.9018700  21.0867060
  28.9295330  78.9061450  20.7433830  28.7639590  74.2398320  17.8545750
  27.8243260  74.4012280  17.9398210  29.0822850  74.9584000  17.3081740
  35.2852350  78.9216840  27.8324780  34.4570980  78.9909930  27.3574910
  35.8802830  79.5071150  27.3640610  32.8067800  79.5301620  21.3613840
  32.1880220  79.1921170  20.7140140  32.7892250  78.8861380  22.0693030
  32.2494360  75.7086160  28.7779650  31.8365540  76.5339870  29.0319640
  31.5170310  75.1231200  28.5856010  24.3827150  78.4946060  23.6398320
  23.9784150  77.7823310  23.1444220  24.4690270  78.1499300  24.5286360
  24.8508850  82.1813620  25.8037530  24.5537140  81.5759090  25.1245310
  25.8008670  82.2190930  25.6926890  23.0955770  75.2689270  27.4197360
  23.6470360  75.3784610  26.6450610  23.6099280  75.6426870  28.1352590
  32.9394460  85.7545490  29.4660630  32.4625020  86.5617680  29.2733240
  32.2556250  85.1023820  29.6186840  23.9427280  81.9195310  32.4545330
  23.0455810  82.1435280  32.7018730  23.9680150  82.0430250  31.5056730
  30.9832500  78.7688430  18.3686590  31.4225780  77.9310860  18.2224410
  31.6960920  79.4017830  18.4550730  22.7698500  78.7908630  31.0302700
  22.6306270  79.6631430  31.3990100  21.8879860  78.4481440  30.8850640
  29.0927880  83.7084500  22.3367830  29.5323790  84.4508830  21.9223220
  29.0314770  83.9511070  23.2606790  24.5678850  84.7330330  33.2387850
  24.5394280  85.1373280  32.3716280  24.4043820  83.8040690  33.0759450
  34.5649640  70.0231240  16.6827630  34.2522300  70.1158070  17.5826700
  35.3262110  70.6012270  16.6325060  21.0831780  77.3891040  21.1404970
  20.9629380  78.1153130  20.5286240  20.7732670  76.6193950  20.6632880
  36.5193670  85.5157430  34.5352020  36.9953390  85.9940320  35.2141100
  37.1400830  85.4474920  33.8097520  18.7217150  80.5606180  26.9473610
  18.7997570  80.6954950  26.0029330  19.3358830  79.8522070  27.1401730
  19.9664780  82.2606370  23.3579790  19.5592860  82.4020960  22.5033390
  20.8577790  81.9766530  23.1551000  35.9226920  82.7070280  31.6952030
  36.0489980  82.4682160  30.7769210  35.9648300  81.8754820  32.1674110
  29.7843660  86.4098280  30.2646840  30.2988330  86.3206290  31.0669270
  28.9412740  86.7557980  30.5574750  31.7598060  86.6953620  19.6930840
  31.5999200  86.4056560  20.5912670  31.5944770  85.9193750  19.1576070
  24.2386440  86.4752150  21.4702460  24.0628920  85.5587690  21.2570260
  23.3842180  86.8339440  21.7100260  31.4624190  84.2041180  18.2528840
  30.7689350  84.2018470  17.5931120  32.2047050  83.7800500  17.8223010
  31.0274120  85.8303890  22.3277330  31.4831070  85.0493270  22.6415950
  31.3666640  86.5410710  22.8718510  35.7750930  74.7602740  32.6601770
  35.1595200  75.2682410  32.1317230  35.4547350  73.8601070  32.6027710
  18.7776670  81.6020350  29.4868070  18.9407710  81.1325710  28.6687440
  19.2429120  81.0943910  30.1516910  23.5495440  70.7326110  24.5228640
  23.1063590  71.5135650  24.1913160  24.1080430  71.0556000  25.2299580
  27.8365250  73.5994630  30.1263960  27.3744620  73.8077650  30.9383900
  27.4343360  72.7853980  29.8234630  32.8369760  74.8203580  31.2560620
  31.9863350  74.5209330  31.5769690  32.6771550  75.0645590  30.3444440
  29.9319470  76.3205330  33.3559410  30.2572880  75.4869080  33.0161640
  30.7199800  76.8433850  33.5037740  26.6654260  70.3536810  19.4034470
  26.0408440  70.3496680  20.1287780  26.5784380  69.4867770  19.0070440
  25.5871340  71.2773440  26.3818240  25.8843670  72.1836270  26.3010260
  26.1356900  70.7892220  25.7677810  23.3409660  75.8559680  22.2509890
  23.1150580  75.6396850  23.1556510  22.5602190  76.2888140  21.9055860
  30.5707420  75.8623050  20.8500540  29.9716310  76.5858850  20.6664160
  31.1187030  75.7999830  20.0676990  25.7808870  76.7545260  32.9170160
  25.6852470  75.8139990  32.7670560  26.6240850  76.9760330  32.5218230
  29.1772290  74.4986590  22.8803820  29.5701860  74.8158790  22.0672510
  29.5389140  73.6198470  22.9948340  20.9119410  73.1658930  31.0703940
  20.5182800  74.0134140  31.2776720  20.2237810  72.5285300  31.2612580
  27.4864460  73.2493900  34.1400680  26.7962780  73.0566100  34.7746770
  28.2296760  73.5328540  34.6724980  18.2136460  71.0887390  25.1034020
  17.9249510  71.6590250  25.8159000  18.9582220  70.6091840  25.4665250
  18.4006690  75.0307510  16.3136740  18.3181360  75.9738270  16.4551730
  18.0489750  74.8882420  15.4349090  29.7627430  77.0892340  26.9754600
  29.0308550  77.5979150  27.3244700  29.3651770  76.2722320  26.6743380
  26.2004820  73.7646540  25.3807090  26.2040880  73.3236490  24.5311630
  27.0955940  74.0863870  25.4878910  22.0507200  73.6473030  24.3401300
  21.7107250  74.1248260  25.0968350  21.2884520  73.1938150  23.9802400
  26.2624970  74.7658620  18.3713850  26.3837790  74.7245100  19.3199670
  25.8773480  75.6282770  18.2160580  30.2253340  72.5426020  26.3877540
  30.2426080  72.9934670  27.2319390  29.9768920  71.6431660  26.6010980
  25.2746470  77.0759760  17.7697150  24.7063370  76.6278010  17.1433060
  25.9835470  77.4352540  17.2362300  33.6524090  69.9558200  32.2263920
  33.9769860  69.2247860  32.7521900  33.6880600  69.6371840  31.3244910
  20.3515650  80.9771780  31.6463880  19.9670440  80.3365450  32.2446840
  20.6627840  81.6807900  32.2158610  26.5012790  77.8248320  27.1272500
  26.8682920  77.3506890  27.8733840  26.3117850  78.6989890  27.4680840
  19.3653280  72.5692010  23.2565970  19.0800200  72.2047680  24.0944590
  19.3032140  71.8372470  22.6429110  24.2912160  76.8656960  29.4456710
  23.9869230  77.7448940  29.6707070  25.2458620  76.9256750  29.4814150
  22.8193950  81.0717950  20.0423560  22.0456210  80.5315570  19.8822280
  23.5488580  80.5524560  19.7041320  33.5781930  80.0683310  25.8349950
  34.2981050  80.5638600  25.4446060  33.3763750  79.3901200  25.1903820
  29.0391870  71.4621270  19.9779340  28.2256480  70.9634440  19.9024650
  28.8453820  72.3019520  19.5615690  28.9600730  80.1392370  31.7218950
  28.8938040  79.2188040  31.4676540  28.3305870  80.2367810  32.4363590
  31.7540260  75.8340920  18.2741500  32.6419880  76.1458150  18.0992840
  31.7245350  74.9613170  17.8822080  22.8631350  80.7398330  23.6802370
  23.3810020  79.9366590  23.6259260  22.4115370  80.6777470  24.5219200
  27.7500850  82.0064610  18.9529670  28.0916550  82.7506840  18.4572990
  26.9213560  82.3195730  19.3154500  20.3475890  77.7059700  30.5928070
  19.9890830  78.3713550  31.1801410  20.0530450  76.8743250  30.9640690
  23.5489010  78.1643940  33.4767620  23.2489150  78.3101120  32.5795440
  24.3200250  77.6049230  33.3841010  28.8917460  82.9612940  31.4722750
  28.9062000  82.0293900  31.2541660  28.1842560  83.0472700  32.1112520
  34.0254530  77.1452760  17.7421360  33.9418250  77.5766980  16.8917800
  34.7448720  77.6051110  18.1748180  35.1028670  79.6020280  30.8191330
  34.3776860  80.1949060  30.6220720  35.6304130  79.5943820  30.0204700
  35.0541780  83.9995020  20.4703490  34.4117940  83.3450640  20.7447210
  34.6672440  84.4050110  19.6944160  30.6328260  81.3280450  24.3175180
  30.9852080  80.7308580  23.6576550  29.7490590  81.0024680  24.4883430
  26.7191540  82.0878140  21.7245590  27.4062670  82.6347350  22.1053180
  25.9323960  82.6318870  21.7595200  18.8583940  77.7050960  17.2162670
  19.7278790  77.9875760  17.4998590  18.3674260  78.5186830  17.1011480
  26.0218750  79.0924170  21.3370950  26.4781530  79.9029420  21.5631140
  25.6706960  78.7747310  22.1689440  28.3251360  84.6030510  28.5663250
  28.9693580  84.8089890  29.2436670  28.6880800  83.8418910  28.1134100
  21.9230530  69.4361820  21.8093470  21.7945160  69.4279720  22.7578390
  21.0992550  69.7744910  21.4584480  29.5983440  82.6062860  27.2840700
  30.2405670  81.9056020  27.3972870  30.1232790  83.3861300  27.1037590
  33.4439160  82.8911480  17.0079840  33.2176740  82.1741920  17.6004480
  33.0535360  82.6423920  16.1701590  31.3721060  83.4057760  30.4876760
  31.7077300  83.9924450  31.1654680  30.4521400  83.2750470  30.7174550
  19.2255190  86.9178340  17.7824300  19.5852830  87.5167680  17.1281570
  19.0847530  87.4638230  18.5559330  18.9224460  71.1952940  31.2700170
  18.2082980  71.3949860  31.8752780  19.3419500  70.4192510  31.6414970
  33.0255410  80.8083420  18.6694000  32.7377110  81.2696110  19.4571880
  33.8207580  80.3481190  18.9378220  19.2097050  85.1833200  32.2566700
  19.3188170  84.2427940  32.1162090  18.5577610  85.4487950  31.6080430
  27.2009640  83.4549090  33.6564820  26.8806510  82.7358330  34.2010510
  26.5268000  84.1304160  33.7300880  25.2423810  84.3009540  18.5997970
  25.2333910  85.0339230  17.9842480  24.3222170  84.0541120  18.6924930
  20.8430450  79.5224430  19.3444730  20.2358400  80.2623330  19.3540030
  21.3179800  79.6123790  18.5182930  30.4163240  73.6875250  29.0201620
  30.7844060  72.8670460  29.3481190  29.5561440  73.7477140  29.4357270
  33.7825270  72.6432190  19.8289180  33.1538430  72.7477860  19.1147410
  33.2877190  72.8628970  20.6183060  28.2283410  84.3637780  17.2623160
  28.3295390  84.1601770  16.3325140  27.3285150  84.1096060  17.4670940
  25.7509300  74.9218140  21.2447060  25.0425450  75.3904480  21.6860670
  26.0353780  74.2640150  21.8792250  27.3765230  76.3414840  29.2439590
  27.8750480  76.8160660  29.9091440  27.5188180  75.4178360  29.4509620
  29.7824730  71.6468800  22.6842850  29.6592510  71.6654930  21.7352360
  30.7309290  71.6947740  22.8041250  26.8701520  86.8824100  21.9570830
  27.1243020  86.8445490  21.0350200  25.9214000  86.7557430  21.9499080
  23.9544320  73.2303220  18.6197770  24.8034850  73.6673370  18.5537960
  23.5875590  73.5423480  19.4469830  34.5832090  72.5582800  30.0867980
  34.0805690  73.2988200  30.4261790  35.3988750  72.9466800  29.7704770
  32.8754100  77.8015980  23.5329340  31.9344240  77.8166210  23.7077030
  33.1898170  77.0151940  23.9789640  22.8535740  79.4835580  17.0933300
  23.6199010  79.3716940  17.6558730  22.9310430  78.7873550  16.4410070
  21.5482500  76.9160650  17.7766190  21.6286090  75.9688160  17.8883590
  22.4402250  77.2467530  17.8826850  34.8779680  84.9724830  25.2083600
  35.0027100  85.7956000  25.6807410  35.7445240  84.7615560  24.8607750
  22.3497210  87.0656040  24.8800730  23.0859690  86.5171500  25.1509300
  22.7338130  87.9312050  24.7406720  19.2342690  83.1329610  20.7542240
  18.3082470  83.3750750  20.7447650  19.6999120  83.9603870  20.6326990
  21.3555490  86.2502110  34.0686310  22.1568220  86.5714160  34.4821710
  20.8407310  85.8897690  34.7906220  25.4599520  86.2386350  16.7026300
  26.2528130  86.5275180  16.2508090  24.9403870  85.8078520  16.0238780
  30.1920120  82.3581980  34.0161720  29.5858280  82.3813580  33.2757470
  29.8874230  81.6265020  34.5528970  31.6220490  86.0862270  32.6271130
  32.5742240  86.0020290  32.5771370  31.4748710  86.7503980  33.3004920
  34.5129690  85.4656480  18.1263040  34.2271200  85.0521620  17.3117220
  34.3149240  86.3944190  18.0063560  19.0753300  78.7375570  33.0122360
  19.5792320  78.1582850  33.5838590  18.3360720  79.0215800  33.5498730
  25.9776920  81.4589760  16.5668650  25.8727560  80.8442110  17.2930030
  25.8101140  80.9355650  15.7831660  26.1291240  80.1446560  32.5457880
  25.3636910  80.7131560  32.4612550  26.3107200  79.8522770  31.6526110
  29.2179650  80.5209790  17.1710640  28.6689750  80.9679090  17.8153380
  29.8398910  80.0159040  17.6948310  33.2714590  81.8751890  33.1032900
  34.0124060  82.2127650  32.6000360  32.5087270  82.0443950  32.5502670
  21.1076380  76.8805160  33.9072430  21.1481720  76.5819030  34.8157660
  21.9621880  77.2812770  33.7479950  24.8854770  79.4800710  19.0675940
  25.3071190  79.3140580  19.9107330  25.0105610  78.6700940  18.5731080
  23.0482190  75.4597260  31.8746920  22.5178650  74.9688210  31.2470260
  23.7170260  75.8881460  31.3404850  27.3982410  78.5038320  16.3153040
  27.9188070  77.7887340  15.9494190  28.0450810  79.1424190  16.6153550
  31.9460250  79.9266720  31.6388110  32.3601270  80.0811800  32.4878530
  31.0111250  80.0521940  31.8013890  32.4182420  77.2662880  33.6427260
  33.0003190  76.5115200  33.5547740  32.5944190  77.7970320  32.8658740
  23.5354490  72.4259630  31.9544210  23.4411360  71.8080380  31.2295080
  22.9551880  73.1525920  31.7274120  26.3015930  70.9832870  28.9871600
  25.8533230  71.0057130  28.1417150  25.6681130  70.5851890  29.5841900
  26.7075480  79.8787200  29.6084040  27.1263590  80.7219930  29.4360280
  25.7884110  80.0159240  29.3790820  29.0439380  77.6103380  30.9921880
  29.1635590  77.0144520  31.7316720  29.9033380  77.6473070  30.5723180
  31.3827280  78.1640570  29.5684390  30.8562500  78.6883190  28.9649530
  31.7258620  78.7967960  30.1994120  23.7813670  75.5533940  16.0134100
  23.5802730  74.6901300  16.3747440  23.6105720  75.4667300  15.0755700
  24.5582900  86.1840210  30.7241770  24.0203990  86.9086270  30.4050470
  24.8116860  85.7070550  29.9339110  25.8108150  74.1524730  32.2497700
  26.4007840  73.8440580  32.9375520  24.9928390  73.6804480  32.4057600
  30.6301580  73.7690540  32.4830720  29.9417100  73.1072080  32.4180710
  31.3507600  73.3228810  32.9279180  31.2601980  70.3642170  18.5420980
  31.5404270  69.5210070  18.8980400  30.4867710  70.5965280  19.0559730
  22.5796470  72.6534560  16.0011980  22.8822370  72.6601990  15.0931130
  23.3191060  72.3032420  16.4979640  27.4145110  87.4191420  30.9828420
  27.3403810  88.3226560  31.2900790  26.5123950  87.1003320  30.9550490
  25.7981400  71.5969180  16.9868180  25.4503400  70.9193170  16.4070630
  25.9994170  71.1358690  17.8011570  27.9630440  86.5849930  18.6054780
  28.8581230  86.9234900  18.6273540  27.9948070  85.8629340  17.9779060
  21.6026600  81.9576980  16.8341780  22.0401470  82.5006650  17.4899360
  22.0874330  81.1323930  16.8438120  18.8172400  84.7466010  24.2862040
  19.1475410  83.8787070  24.0540680  19.2463400  84.9524530  25.1167000
  23.4134320  83.0775020  21.9464010  23.1129860  82.9539990  22.8467920
  23.3071810  82.2183610  21.5379740  19.3062610  85.6136600  27.0243670
  18.8693600  85.7937400  27.8567820  19.8740290  86.3711220  26.8825390
  34.9424790  85.1153600  31.3120980  34.3426780  85.1746160  30.5684900
  35.0718690  84.1758580  31.4417830  36.1826240  82.8571420  16.6490690
  35.3519200  82.9248070  17.1197920  36.3598070  83.7475540  16.3457550
  35.6382700  79.6018900  19.1524890  36.4001610  80.1715550  19.2584580
  35.6537070  79.0346100  19.9233200  19.1387040  78.1256830  23.3832550
  18.4835880  77.8568470  22.7392250  19.9764990  78.0161310  22.9334530
  36.6442670  80.4569000  23.9966820  37.0151500  79.6736320  23.5902790
  37.2844600  81.1458100  23.8184120  33.6276430  81.8405580  29.4097140
  32.8136270  82.2702740  29.6722930  34.0350630  82.4523990  28.7966190
  35.6901870  79.8953270  16.3097410  35.9650710  80.8032150  16.1816630
  35.5012610  79.8315800  17.2459400  32.0877480  72.9198120  17.6051040
  32.5062360  72.7329100  16.7647700  31.7813540  72.0677170  17.9153970
  35.5867210  77.8322260  21.3026840  35.2110810  77.0650190  20.8708130
  34.8570330  78.2144960  21.7901770  20.1762970  78.5109400  27.9235890
  20.5436010  78.4236800  28.8031910  19.6073790  77.7475950  27.8242750
  34.9766830  76.9793780  30.9366360  34.7452920  76.7506530  30.0364310
  35.2371380  77.8993330  30.8911250  19.7278970  75.4218490  31.8294310
  18.8335020  75.3885250  32.1688020  20.2676520  75.6205280  32.5945560
  33.4154900  72.2050210  33.7146060  34.2925080  72.2133610  34.0980060
  33.4275740  71.4681050  33.1038410  18.3525120  75.3355760  19.3257880
  17.4489200  75.5985960  19.1509540  18.8365740  75.6066930  18.5457840
  34.8618170  76.0579750  24.6034080  35.3855650  75.5642400  23.9724250
  35.4477590  76.1930110  25.3481650  35.0407890  76.1419620  28.1253630
  34.0910600  76.1083160  28.2398620  35.2220900  77.0519730  27.8903400
  20.8952330  74.3921300  17.2352260  21.6044030  73.9704520  16.7499540
  20.1792270  74.4596530  16.6035610  20.5426490  70.4460630  16.2754910
  21.2654620  70.9869570  16.5936130  20.8151010  70.1724050  15.3996450
  34.3518140  75.3153100  20.5426490  34.8477260  75.0823970  21.3275370
  34.1534210  74.4764940  20.1264130  20.2318680  69.6966820  26.1777530
  20.8794870  69.1464200  25.7372690  20.6520520  69.9509970  26.9993340
  35.7805300  73.9514050  23.0764170  35.6704580  73.7970090  24.0146440
  36.5412890  73.4234990  22.8339580  36.6695570  71.7821970  16.3170310
  37.5944880  71.6503150  16.1088600  36.6471360  71.8614790  17.2706760
  36.7434060  72.5532630  18.9427020  35.9485560  72.4877750  19.4719930
  36.9477340  73.4883270  18.9312370  33.6852480  86.5924180  22.9365410
  34.2811550  86.2708750  22.2599830  33.9430630  86.1196000  23.7278680
  19.9850680  69.8522490  28.9202850  19.6365500  70.3086310  29.6861030
  19.6538380  68.9579620  29.0025280  21.5915050  83.0242090  33.0856040
  21.5484680  82.6535000  33.9670500  21.7226060  83.9619660  33.2257860
  25.2921080  84.5801680  28.6865760  25.0512440  84.8476240  27.7996280
  26.2323720  84.7507410  28.7416620  27.4975500  71.0434370  32.4422270
  27.4364390  71.6356200  33.1917680  28.4375880  70.9360330  32.2972530
  30.1350060  70.7004430  32.0814560  30.7490470  71.0183720  31.4195640
  30.6799620  70.2153020  32.7010420  36.5525240  86.5996060  29.4876400
  36.0583520  86.9964930  28.7703530  35.9438530  85.9745270  29.8813680
  20.6571320  69.3798690  32.1953620  21.2054310  69.1986740  31.4319730
  20.7226630  68.5892800  32.7309930  21.4303080  85.9704340  30.2053820
  20.8363400  85.8389040  30.9443860  21.4226920  85.1342480  29.7395920
  30.8758100  69.2636570  28.4083850  30.0017940  69.5971680  28.2056780
  30.7668850  68.7909750  29.2335720  31.7830080  71.4707440  29.7925570
  31.4543440  70.6559200  29.4127300  32.7312380  71.4277250  29.6691260
  34.2364690  87.2419480  26.7663140  33.7767660  87.9935290  26.3921160
  33.6077150  86.5225950  26.7077940  21.0615310  83.3362720  29.1561860
  20.3349370  82.7168010  29.0887810  21.1224460  83.7303330  28.2859940
  24.6660410  85.5507720  25.9411270  25.1825430  84.9395080  25.4159530
  25.3157790  86.0536500  26.4322280  27.4055910  86.4416210  26.7680250
  27.6933720  86.1870510  25.8913260  27.9179130  85.8893570  27.3585820
  28.6232920  70.1806410  27.3476760  27.8404710  70.6551910  27.6273520
  28.3295850  69.2761240  27.2389940  33.1753990  70.8829510  25.3925850
  33.6162080  70.8274610  24.5447450  32.9061580  71.7987520  25.4636030
  19.3445310  86.6537110  22.3658620  19.1767350  86.0207790  23.0640510
  18.4779820  86.8596510  22.0152810  19.9673330  70.4853890  19.8690480
  20.7252690  70.5982770  19.2954510  19.5050500  71.3223090  19.8233910
  26.5087140  72.5993160  22.8592790  25.6961650  72.2250050  22.5188670
  27.0128780  71.8438240  23.1613980  31.0112120  69.2635610  24.0975860
  31.6141490  69.8355820  24.5724380  30.2705110  69.8275050  23.8749760
  34.1546720  69.6657170  19.3716140  34.3497350  70.5640620  19.6383570
  33.3676590  69.4344250  19.8649090  20.9508010  85.3470340  19.8108760
  20.4255630  85.7278370  19.1070720  20.8752590  85.9721110  20.5318470
  22.3398480  71.0117940  18.4092450  22.8691240  70.2247740  18.2800400
  22.9726800  71.6909130  18.6427980  24.5336320  70.7493080  21.4637840
  23.9039060  70.0480390  21.6307970  23.9941460  71.5097210  21.2471000
  27.4728270  87.3632310  34.1348450  28.3995580  87.1276580  34.1784410
  27.4578700  88.1904310  33.6534480  35.7073330  86.9057880  21.1322700
  35.8825520  86.2195620  20.4883620  35.0094900  87.4304930  20.7399370
  24.6591880  70.0277060  33.8990330  24.3776150  70.5310660  33.1351150
  25.0411580  69.2298810  33.5332460  23.5500980  87.2952720  18.6858010
  24.2819800  87.0112000  18.1381900  23.8094650  87.0566000  19.5757390
  22.7115770  83.4117450  18.6904340  22.0824650  83.8802550  19.2390170
  22.8263600  82.5666670  19.1250530  31.2607340  69.4430640  34.4770800
  31.1472790  69.7625250  35.3722320  32.0777080  69.8443150  34.1808080
  34.0405830  86.5902170  33.9589490  34.8331150  86.0951400  33.7515450
  34.3338980  87.2692310  34.5665100  30.1665490  77.4623110   4.8405540
  30.0859540  76.5477720   4.5697250  29.7529910  77.9590180   4.1345250
  28.2983530  79.2402130   6.7214810  27.5225630  78.7602570   7.0113380
  28.9496460  78.5607780   6.5470970  22.3149360  79.5521940   7.5990570
  21.4834240  79.2970650   7.9987080  22.9230340  79.6232710   8.3348490
  32.3190960  83.6462320   5.5013940  31.8572490  82.8749560   5.8301110
  33.1316510  83.6728390   6.0066390  22.2950620  83.5862030   7.7948590
  22.5978660  82.6959770   7.6158810  23.0394210  84.1432250   7.5670840
  18.6874320  77.1129480   7.2672660  19.2590430  76.3451680   7.2676300
  18.6875860  77.4118240   6.3579270  28.5454270  85.9320330   5.1217930
  27.9265710  86.3877830   4.5512370  29.4006050  86.0871790   4.7207630
  27.7392520  81.9159320   6.7284970  27.6700800  80.9749260   6.5674100
  28.5012380  82.0060730   7.3007540  19.9299190  72.5213840   9.0541590
  19.7502030  71.6239590   9.3344350  19.5279270  73.0685710   9.7288540
  28.7697690  74.7229700   6.9553900  29.1462510  73.8501580   6.8427570
  28.6717200  75.0588400   6.0644340  22.9002700  73.0955330   2.4171340
  23.0069450  73.9959060   2.7240100  21.9895060  73.0473300   2.1265990
  32.5521810  72.2180140   3.8882240  33.3731430  71.7276710   3.9307720
  32.5855890  72.8077800   4.6414080  20.5485860  75.0174340   7.6623930
  21.2295970  75.2812710   8.2811330  20.2333910  74.1775210   7.9961940
  24.7410430  76.0641700   6.7496520  25.2488650  76.5622670   7.3901540
  25.2723670  75.2876900   6.5735880  36.8421360  74.2346890  10.4525870
  36.1373530  74.6228600   9.9340980  37.1079280  74.9297180  11.0546800
  23.0246530  70.7040260  11.0159940  23.0264970  71.2212650  10.2105840
  22.1950840  70.2270440  10.9929870  29.4117620  80.8159570   2.5149840
  28.7934890  81.2809020   1.9512560  29.9240870  81.5087050   2.9319350
  24.2749380  80.3435440   9.1933440  23.9418760  80.9704360   9.8354510
  24.4516060  80.8697320   8.4135110  32.7883290  74.1580520   6.6609780
  32.0838860  74.4465410   7.2412890  33.1495450  74.9680630   6.3009340
  22.7061860  72.4150220   9.0230390  23.0478670  73.2592270   8.7284260
  21.7677670  72.5633960   9.1395730  23.4868480  82.3116240  11.0082620
  24.1042480  82.9867320  10.7267070  22.6261600  82.7204220  10.9170120
  34.4046070  83.7755650   8.9237260  33.7209590  84.4454760   8.9153930
  34.9440360  83.9736300   8.1582120  35.8570210  73.6035310   7.0518990
  34.9095120  73.6374290   7.1834420  36.1820200  74.4174260   7.4368350
  26.3889750  69.9032490   5.3474980  26.6964730  69.3479380   4.6310480
  25.4590450  70.0376950   5.1647970  31.9404810  85.6199780   7.6382440
  31.9531970  85.2162070   6.7704700  31.3880030  86.3947070   7.5343870
  33.2350230  82.3416000   2.7272610  33.1246560  81.3990330   2.8522030
  33.2318480  82.7031640   3.6135370  31.3390250  80.5229620   8.9665050
  31.7559040  80.3089730   8.1318510  32.0630070  80.7802410   9.5373670
  28.7770510  77.9681320   2.0835100  27.8499790  77.9018700   2.3123570
  28.9295330  78.9061450   1.9690340  35.2852350  78.9216840   9.0581290
  34.4570980  78.9909930   8.5831420  35.8802830  79.5071150   8.5897120
  32.8067800  79.5301620   2.5870350  32.1880220  79.1921170   1.9396650
  32.7892250  78.8861380   3.2949540  32.2494360  75.7086160  10.0036160
  31.8365540  76.5339870  10.2576150  31.5170310  75.1231200   9.8112520
  24.3827150  78.4946060   4.8654830  23.9784150  77.7823310   4.3700730
  24.4690270  78.1499300   5.7542870  24.8508850  82.1813620   7.0294040
  24.5537140  81.5759090   6.3501820  25.8008670  82.2190930   6.9183400
  23.0955770  75.2689270   8.6453870  23.6470360  75.3784610   7.8707120
  23.6099280  75.6426870   9.3609100  32.9394460  85.7545490  10.6917140
  32.4625020  86.5617680  10.4989750  32.2556250  85.1023820  10.8443350
  23.9427280  81.9195310  13.6801840  23.0455810  82.1435280  13.9275240
  23.9680150  82.0430250  12.7313240  22.7698500  78.7908630  12.2559210
  22.6306270  79.6631430  12.6246610  21.8879860  78.4481440  12.1107150
  29.0927880  83.7084500   3.5624340  29.5323790  84.4508830   3.1479730
  29.0314770  83.9511070   4.4863300  24.5678850  84.7330330  14.4644360
  24.5394280  85.1373280  13.5972790  24.4043820  83.8040690  14.3015960
  21.0831780  77.3891040   2.3661480  20.9629380  78.1153130   1.7542750
  20.7732670  76.6193950   1.8889390  36.5193670  85.5157430  15.7608530
  36.9953390  85.9940320  16.4397610  37.1400830  85.4474920  15.0354030
  18.7217150  80.5606180   8.1730120  18.7997570  80.6954950   7.2285840
  19.3358830  79.8522070   8.3658240  19.9664780  82.2606370   4.5836300
  19.5592860  82.4020960   3.7289900  20.8577790  81.9766530   4.3807510
  35.9226920  82.7070280  12.9208540  36.0489980  82.4682160  12.0025720
  35.9648300  81.8754820  13.3930620  29.7843660  86.4098280  11.4903350
  30.2988330  86.3206290  12.2925780  28.9412740  86.7557980  11.7831260
  24.2386440  86.4752150   2.6958970  24.0628920  85.5587690   2.4826770
  23.3842180  86.8339440   2.9356770  31.0274120  85.8303890   3.5533840
  31.4831070  85.0493270   3.8672460  31.3666640  86.5410710   4.0975020
  35.7750930  74.7602740  13.8858280  35.1595200  75.2682410  13.3573740
  35.4547350  73.8601070  13.8284220  18.7776670  81.6020350  10.7124580
  18.9407710  81.1325710   9.8943950  19.2429120  81.0943910  11.3773420
  23.5495440  70.7326110   5.7485150  23.1063590  71.5135650   5.4169670
  24.1080430  71.0556000   6.4556090  27.8365250  73.5994630  11.3520470
  27.3744620  73.8077650  12.1640410  27.4343360  72.7853980  11.0491140
  32.8369760  74.8203580  12.4817130  31.9863350  74.5209330  12.8026200
  32.6771550  75.0645590  11.5700950  29.9319470  76.3205330  14.5815920
  30.2572880  75.4869080  14.2418150  30.7199800  76.8433850  14.7294250
  25.5871340  71.2773440   7.6074750  25.8843670  72.1836270   7.5266770
  26.1356900  70.7892220   6.9934320  23.3409660  75.8559680   3.4766400
  23.1150580  75.6396850   4.3813020  22.5602190  76.2888140   3.1312370
  25.7808870  76.7545260  14.1426670  25.6852470  75.8139990  13.9927070
  26.6240850  76.9760330  13.7474740  29.1772290  74.4986590   4.1060330
  29.5701860  74.8158790   3.2929020  29.5389140  73.6198470   4.2204850
  20.9119410  73.1658930  12.2960450  20.5182800  74.0134140  12.5033230
  20.2237810  72.5285300  12.4869090  27.4864460  73.2493900  15.3657190
  26.7962780  73.0566100  16.0003280  28.2296760  73.5328540  15.8981490
  18.2136460  71.0887390   6.3290530  17.9249510  71.6590250   7.0415510
  18.9582220  70.6091840   6.6921760  29.7627430  77.0892340   8.2011110
  29.0308550  77.5979150   8.5501210  29.3651770  76.2722320   7.8999890
  26.2004820  73.7646540   6.6063600  26.2040880  73.3236490   5.7568140
  27.0955940  74.0863870   6.7135420  22.0507200  73.6473030   5.5657810
  21.7107250  74.1248260   6.3224860  21.2884520  73.1938150   5.2058910
  30.2253340  72.5426020   7.6134050  30.2426080  72.9934670   8.4575900
  29.9768920  71.6431660   7.8267490  33.6524090  69.9558200  13.4520430
  33.9769860  69.2247860  13.9778410  33.6880600  69.6371840  12.5501420
  20.3515650  80.9771780  12.8720390  19.9670440  80.3365450  13.4703350
  20.6627840  81.6807900  13.4415120  26.5012790  77.8248320   8.3529010
  26.8682920  77.3506890   9.0990350  26.3117850  78.6989890   8.6937350
  19.3653280  72.5692010   4.4822480  19.0800200  72.2047680   5.3201100
  19.3032140  71.8372470   3.8685620  24.2912160  76.8656960  10.6713220
  23.9869230  77.7448940  10.8963580  25.2458620  76.9256750  10.7070660
  33.5781930  80.0683310   7.0606460  34.2981050  80.5638600   6.6702570
  33.3763750  79.3901200   6.4160330  28.9600730  80.1392370  12.9475460
  28.8938040  79.2188040  12.6933050  28.3305870  80.2367810  13.6620100
  22.8631350  80.7398330   4.9058880  23.3810020  79.9366590   4.8515770
  22.4115370  80.6777470   5.7475710  20.3475890  77.7059700  11.8184580
  19.9890830  78.3713550  12.4057920  20.0530450  76.8743250  12.1897200
  23.5489010  78.1643940  14.7024130  23.2489150  78.3101120  13.8051950
  24.3200250  77.6049230  14.6097520  28.8917460  82.9612940  12.6979260
  28.9062000  82.0293900  12.4798170  28.1842560  83.0472700  13.3369030
  35.1028670  79.6020280  12.0447840  34.3776860  80.1949060  11.8477230
  35.6304130  79.5943820  11.2461210  30.6328260  81.3280450   5.5431690
  30.9852080  80.7308580   4.8833060  29.7490590  81.0024680   5.7139940
  26.7191540  82.0878140   2.9502100  27.4062670  82.6347350   3.3309690
  25.9323960  82.6318870   2.9851710  26.0218750  79.0924170   2.5627460
  26.4781530  79.9029420   2.7887650  25.6706960  78.7747310   3.3945950
  28.3251360  84.6030510   9.7919760  28.9693580  84.8089890  10.4693180
  28.6880800  83.8418910   9.3390610  21.9230530  69.4361820   3.0349980
  21.7945160  69.4279720   3.9834900  21.0992550  69.7744910   2.6840990
  29.5983440  82.6062860   8.5097210  30.2405670  81.9056020   8.6229380
  30.1232790  83.3861300   8.3294100  31.3721060  83.4057760  11.7133270
  31.7077300  83.9924450  12.3911190  30.4521400  83.2750470  11.9431060
  18.9224460  71.1952940  12.4956680  18.2082980  71.3949860  13.1009290
  19.3419500  70.4192510  12.8671480  19.2097050  85.1833200  13.4823210
  19.3188170  84.2427940  13.3418600  18.5577610  85.4487950  12.8336940
  27.2009640  83.4549090  14.8821330  26.8806510  82.7358330  15.4267020
  26.5268000  84.1304160  14.9557390  30.4163240  73.6875250  10.2458130
  30.7844060  72.8670460  10.5737700  29.5561440  73.7477140  10.6613780
  25.7509300  74.9218140   2.4703570  25.0425450  75.3904480   2.9117180
  26.0353780  74.2640150   3.1048760  27.3765230  76.3414840  10.4696100
  27.8750480  76.8160660  11.1347950  27.5188180  75.4178360  10.6766130
  29.7824730  71.6468800   3.9099360  29.6592510  71.6654930   2.9608870
  30.7309290  71.6947740   4.0297760  26.8701520  86.8824100   3.1827340
  27.1243020  86.8445490   2.2606710  25.9214000  86.7557430   3.1755590
  34.5832090  72.5582800  11.3124490  34.0805690  73.2988200  11.6518300
  35.3988750  72.9466800  10.9961280  32.8754100  77.8015980   4.7585850
  31.9344240  77.8166210   4.9333540  33.1898170  77.0151940   5.2046150
  34.8779680  84.9724830   6.4340110  35.0027100  85.7956000   6.9063920
  35.7445240  84.7615560   6.0864260  22.3497210  87.0656040   6.1057240
  23.0859690  86.5171500   6.3765810  22.7338130  87.9312050   5.9663230
  19.2342690  83.1329610   1.9798750  18.3082470  83.3750750   1.9704160
  19.6999120  83.9603870   1.8583500  21.3555490  86.2502110  15.2942820
  22.1568220  86.5714160  15.7078220  20.8407310  85.8897690  16.0162730
  30.1920120  82.3581980  15.2418230  29.5858280  82.3813580  14.5013980
  29.8874230  81.6265020  15.7785480  31.6220490  86.0862270  13.8527640
  32.5742240  86.0020290  13.8027880  31.4748710  86.7503980  14.5261430
  19.0753300  78.7375570  14.2378870  19.5792320  78.1582850  14.8095100
  18.3360720  79.0215800  14.7755240  26.1291240  80.1446560  13.7714390
  25.3636910  80.7131560  13.6869060  26.3107200  79.8522770  12.8782620
  33.2714590  81.8751890  14.3289410  34.0124060  82.2127650  13.8256870
  32.5087270  82.0443950  13.7759180  21.1076380  76.8805160  15.1328940
  21.1481720  76.5819030  16.0414170  21.9621880  77.2812770  14.9736460
  23.0482190  75.4597260  13.1003430  22.5178650  74.9688210  12.4726770
  23.7170260  75.8881460  12.5661360  31.9460250  79.9266720  12.8644620
  32.3601270  80.0811800  13.7135040  31.0111250  80.0521940  13.0270400
  32.4182420  77.2662880  14.8683770  33.0003190  76.5115200  14.7804250
  32.5944190  77.7970320  14.0915250  23.5354490  72.4259630  13.1800720
  23.4411360  71.8080380  12.4551590  22.9551880  73.1525920  12.9530630
  26.3015930  70.9832870  10.2128110  25.8533230  71.0057130   9.3673660
  25.6681130  70.5851890  10.8098410  26.7075480  79.8787200  10.8340550
  27.1263590  80.7219930  10.6616790  25.7884110  80.0159240  10.6047330
  29.0439380  77.6103380  12.2178390  29.1635590  77.0144520  12.9573230
  29.9033380  77.6473070  11.7979690  31.3827280  78.1640570  10.7940900
  30.8562500  78.6883190  10.1906040  31.7258620  78.7967960  11.4250630
  24.5582900  86.1840210  11.9498280  24.0203990  86.9086270  11.6306980
  24.8116860  85.7070550  11.1595620  25.8108150  74.1524730  13.4754210
  26.4007840  73.8440580  14.1632030  24.9928390  73.6804480  13.6314110
  30.6301580  73.7690540  13.7087230  29.9417100  73.1072080  13.6437220
  31.3507600  73.3228810  14.1535690  27.4145110  87.4191420  12.2084930
  27.3403810  88.3226560  12.5157300  26.5123950  87.1003320  12.1807000
  18.8172400  84.7466010   5.5118550  19.1475410  83.8787070   5.2797190
  19.2463400  84.9524530   6.3423510  23.4134320  83.0775020   3.1720520
  23.1129860  82.9539990   4.0724430  23.3071810  82.2183610   2.7636250
  19.3062610  85.6136600   8.2500180  18.8693600  85.7937400   9.0824330
  19.8740290  86.3711220   8.1081900  34.9424790  85.1153600  12.5377490
  34.3426780  85.1746160  11.7941410  35.0718690  84.1758580  12.6674340
  19.1387040  78.1256830   4.6089060  18.4835880  77.8568470   3.9648760
  19.9764990  78.0161310   4.1591040  36.6442670  80.4569000   5.2223330
  37.0151500  79.6736320   4.8159300  37.2844600  81.1458100   5.0440630
  33.6276430  81.8405580  10.6353650  32.8136270  82.2702740  10.8979440
  34.0350630  82.4523990  10.0222700  35.5867210  77.8322260   2.5283350
  35.2110810  77.0650190   2.0964640  34.8570330  78.2144960   3.0158280
  20.1762970  78.5109400   9.1492400  20.5436010  78.4236800  10.0288420
  19.6073790  77.7475950   9.0499260  34.9766830  76.9793780  12.1622870
  34.7452920  76.7506530  11.2620820  35.2371380  77.8993330  12.1167760
  19.7278970  75.4218490  13.0550820  18.8335020  75.3885250  13.3944530
  20.2676520  75.6205280  13.8202070  33.4154900  72.2050210  14.9402570
  34.2925080  72.2133610  15.3236570  33.4275740  71.4681050  14.3294920
  34.8618170  76.0579750   5.8290590  35.3855650  75.5642400   5.1980760
  35.4477590  76.1930110   6.5738160  35.0407890  76.1419620   9.3510140
  34.0910600  76.1083160   9.4655130  35.2220900  77.0519730   9.1159910
  34.3518140  75.3153100   1.7683000  34.8477260  75.0823970   2.5531880
  34.1534210  74.4764940   1.3520640  20.2318680  69.6966820   7.4034040
  20.8794870  69.1464200   6.9629200  20.6520520  69.9509970   8.2249850
  35.7805300  73.9514050   4.3020680  35.6704580  73.7970090   5.2402950
  36.5412890  73.4234990   4.0596090  34.1271020  69.8908180  10.7603680
  34.7643240  70.5042320  11.1262870  34.2745910  69.9268840   9.8152910
  33.6852480  86.5924180   4.1621920  34.2811550  86.2708750   3.4856340
  33.9430630  86.1196000   4.9535190  19.9850680  69.8522490  10.1459360
  19.6365500  70.3086310  10.9117540  19.6538380  68.9579620  10.2281790
  21.5915050  83.0242090  14.3112550  21.5484680  82.6535000  15.1927010
  21.7226060  83.9619660  14.4514370  25.2921080  84.5801680   9.9122270
  25.0512440  84.8476240   9.0252790  26.2323720  84.7507410   9.9673130
  27.4975500  71.0434370  13.6678780  27.4364390  71.6356200  14.4174190
  28.4375880  70.9360330  13.5229040  30.1350060  70.7004430  13.3071070
  30.7490470  71.0183720  12.6452150  30.6799620  70.2153020  13.9266930
  36.5525240  86.5996060  10.7132910  36.0583520  86.9964930   9.9960040
  35.9438530  85.9745270  11.1070190  20.6571320  69.3798690  13.4210130
  21.2054310  69.1986740  12.6576240  20.7226630  68.5892800  13.9566440
  21.4303080  85.9704340  11.4310330  20.8363400  85.8389040  12.1700370
  21.4226920  85.1342480  10.9652430  30.8758100  69.2636570   9.6340360
  30.0017940  69.5971680   9.4313290  30.7668850  68.7909750  10.4592230
  31.7830080  71.4707440  11.0182080  31.4543440  70.6559200  10.6383810
  32.7312380  71.4277250  10.8947770  34.2364690  87.2419480   7.9919650
  33.7767660  87.9935290   7.6177670  33.6077150  86.5225950   7.9334450
  21.0615310  83.3362720  10.3818370  20.3349370  82.7168010  10.3144320
  21.1224460  83.7303330   9.5116450  24.6660410  85.5507720   7.1667780
  25.1825430  84.9395080   6.6416040  25.3157790  86.0536500   7.6578790
  27.4055910  86.4416210   7.9936760  27.6933720  86.1870510   7.1169770
  27.9179130  85.8893570   8.5842330  28.6232920  70.1806410   8.5733270
  27.8404710  70.6551910   8.8530030  28.3295850  69.2761240   8.4646450
  33.1753990  70.8829510   6.6182360  33.6162080  70.8274610   5.7703960
  32.9061580  71.7987520   6.6892540  35.0392560  70.5144750   4.6291180
  34.9780960  69.5705970   4.4822200  35.8184590  70.6224840   5.1744640
  19.3445310  86.6537110   3.5915130  19.1767350  86.0207790   4.2897020
  18.4779820  86.8596510   3.2409320  26.5087140  72.5993160   4.0849300
  25.6961650  72.2250050   3.7445180  27.0128780  71.8438240   4.3870490
  31.0112120  69.2635610   5.3232370  31.6141490  69.8355820   5.7980890
  30.2705110  69.8275050   5.1006270  24.5336320  70.7493080   2.6894350
  23.9039060  70.0480390   2.8564480  23.9941460  71.5097210   2.4727510
  27.4728270  87.3632310  15.3604960  28.3995580  87.1276580  15.4040920
  27.4578700  88.1904310  14.8790990  35.7073330  86.9057880   2.3579210
  35.8825520  86.2195620   1.7140130  35.0094900  87.4304930   1.9655880
  24.6591880  70.0277060  15.1246840  24.3776150  70.5310660  14.3607660
  25.0411580  69.2298810  14.7588970  31.2607340  69.4430640  15.7027310
  31.1472790  69.7625250  16.5978830  32.0777080  69.8443150  15.4064590
  34.0405830  86.5902170  15.1846000  34.8331150  86.0951400  14.9771960
  34.3338980  87.2692310  15.7921610  30.1665490  58.6879620  61.1636010
  30.0859540  57.7734230  60.8927720  29.7529910  59.1846690  60.4575720
  28.2983530  60.4658640  63.0445280  27.5225630  59.9859080  63.3343850
  28.9496460  59.7864290  62.8701440  22.3149360  60.7778450  63.9221040
  21.4834240  60.5227160  64.3217550  22.9230340  60.8489220  64.6578960
  32.3190960  64.8718830  61.8244410  31.8572490  64.1006070  62.1531580
  33.1316510  64.8984900  62.3296860  22.2950620  64.8118540  64.1179060
  22.5978660  63.9216280  63.9389280  23.0394210  65.3688760  63.8901310
  20.7241310  55.7380340  57.7063430  19.8358010  56.0796310  57.6043310
  21.0082500  55.5380660  56.8144260  18.6874320  58.3385990  63.5903130
  19.2590430  57.5708190  63.5906770  18.6875860  58.6374750  62.6809740
  28.5454270  67.1576840  61.4448400  27.9265710  67.6134340  60.8742840
  29.4006050  67.3128300  61.0438100  27.7392520  63.1415830  63.0515440
  27.6700800  62.2005770  62.8904570  28.5012380  63.2317240  63.6238010
  19.9299190  53.7470350  65.3772060  19.7502030  52.8496100  65.6574820
  19.5279270  54.2942220  66.0519010  28.7697690  55.9486210  63.2784370
  29.1462510  55.0758090  63.1658040  28.6717200  56.2844910  62.3874810
  22.9002700  54.3211840  58.7401810  23.0069450  55.2215570  59.0470570
  21.9895060  54.2729810  58.4496460  32.5521810  53.4436650  60.2112710
  33.3731430  52.9533220  60.2538190  32.5855890  54.0334310  60.9644550
  20.5485860  56.2430850  63.9854400  21.2295970  56.5069220  64.6041800
  20.2333910  55.4031720  64.3192410  24.7410430  57.2898210  63.0726990
  25.2488650  57.7879180  63.7132010  25.2723670  56.5133410  62.8966350
  36.8421360  55.4603400  66.7756340  36.1373530  55.8485110  66.2571450
  37.1079280  56.1553690  67.3777270  23.0246530  51.9296770  67.3390410
  23.0264970  52.4469160  66.5336310  22.1950840  51.4526950  67.3160340
  29.4117620  62.0416080  58.8380310  28.7934890  62.5065530  58.2743030
  29.9240870  62.7343560  59.2549820  24.2749380  61.5691950  65.5163910
  23.9418760  62.1960870  66.1584980  24.4516060  62.0953830  64.7365580
  32.7883290  55.3837030  62.9840250  32.0838860  55.6721920  63.5643360
  33.1495450  56.1937140  62.6239810  22.7061860  53.6406730  65.3460860
  23.0478670  54.4848780  65.0514730  21.7677670  53.7890470  65.4626200
  23.4868480  63.5372750  67.3313090  24.1042480  64.2123830  67.0497540
  22.6261600  63.9460730  67.2400590  18.7800820  62.7272610  56.2119940
  18.4028800  63.2159710  55.4804840  19.0373890  63.3997890  56.8426470
  34.4046070  65.0012160  65.2467730  33.7209590  65.6711270  65.2384400
  34.9440360  65.1992810  64.4812590  35.8570210  54.8291820  63.3749460
  34.9095120  54.8630800  63.5064890  36.1820200  55.6430770  63.7598820
  26.3889750  51.1289000  61.6705450  26.6964730  50.5735890  60.9540950
  25.4590450  51.2633460  61.4878440  31.9404810  66.8456290  63.9612910
  31.9531970  66.4418580  63.0935170  31.3880030  67.6203580  63.8574340
  33.2350230  63.5672510  59.0503080  33.1246560  62.6246840  59.1752500
  33.2318480  63.9288150  59.9365840  31.3390250  61.7486130  65.2895520
  31.7559040  61.5346240  64.4548980  32.0630070  62.0058920  65.8604140
  28.7770510  59.1937830  58.4065570  27.8499790  59.1275210  58.6354040
  28.9295330  60.1317960  58.2920810  28.7639590  55.4654830  55.4032730
  27.8243260  55.6268790  55.4885190  29.0822850  56.1840510  54.8568720
  35.2852350  60.1473350  65.3811760  34.4570980  60.2166440  64.9061890
  35.8802830  60.7327660  64.9127590  32.8067800  60.7558130  58.9100820
  32.1880220  60.4177680  58.2627120  32.7892250  60.1117890  59.6180010
  32.2494360  56.9342670  66.3266630  31.8365540  57.7596380  66.5806620
  31.5170310  56.3487710  66.1342990  24.3827150  59.7202570  61.1885300
  23.9784150  59.0079820  60.6931200  24.4690270  59.3755810  62.0773340
  24.8508850  63.4070130  63.3524510  24.5537140  62.8015600  62.6732290
  25.8008670  63.4447440  63.2413870  23.0955770  56.4945780  64.9684340
  23.6470360  56.6041120  64.1937590  23.6099280  56.8683380  65.6839570
  32.9394460  66.9802000  67.0147610  32.4625020  67.7874190  66.8220220
  32.2556250  66.3280330  67.1673820  30.9832500  59.9944940  55.9173570
  31.4225780  59.1567370  55.7711390  31.6960920  60.6274340  56.0037710
  29.0927880  64.9341010  59.8854810  29.5323790  65.6765340  59.4710200
  29.0314770  65.1767580  60.8093770  34.5649640  51.2487750  54.2314610
  34.2522300  51.3414580  55.1313680  35.3262110  51.8268780  54.1812040
  21.0831780  58.6147550  58.6891950  20.9629380  59.3409640  58.0773220
  20.7732670  57.8450460  58.2119860  18.7217150  61.7862690  64.4960590
  18.7997570  61.9211460  63.5516310  19.3358830  61.0778580  64.6888710
  19.9664780  63.4862880  60.9066770  19.5592860  63.6277470  60.0520370
  20.8577790  63.2023040  60.7037980  31.7598060  67.9210130  57.2417820
  31.5999200  67.6313070  58.1399650  31.5944770  67.1450260  56.7063050
  24.2386440  67.7008660  59.0189440  24.0628920  66.7844200  58.8057240
  23.3842180  68.0595950  59.2587240  31.4624190  65.4297690  55.8015820
  30.7689350  65.4274980  55.1418100  32.2047050  65.0057010  55.3709990
  31.0274120  67.0560400  59.8764310  31.4831070  66.2749780  60.1902930
  31.3666640  67.7667220  60.4205490  18.7776670  62.8276860  67.0355050
  18.9407710  62.3582220  66.2174420  19.2429120  62.3200420  67.7003890
  23.5495440  51.9582620  62.0715620  23.1063590  52.7392160  61.7400140
  24.1080430  52.2812510  62.7786560  26.6654260  51.5793320  56.9521450
  26.0408440  51.5753190  57.6774760  26.5784380  50.7124280  56.5557420
  25.5871340  52.5029950  63.9305220  25.8843670  53.4092780  63.8497240
  26.1356900  52.0148730  63.3164790  23.3409660  57.0816190  59.7996870
  23.1150580  56.8653360  60.7043490  22.5602190  57.5144650  59.4542840
  30.5707420  57.0879560  58.3987520  29.9716310  57.8115360  58.2151140
  31.1187030  57.0256340  57.6163970  29.1772290  55.7243100  60.4290800
  29.5701860  56.0415300  59.6159490  29.5389140  54.8454980  60.5435320
  18.2136460  52.3143900  62.6521000  17.9249510  52.8846760  63.3645980
  18.9582220  51.8348350  63.0152230  18.4006690  56.2564020  53.8623720
  18.3181360  57.1994780  54.0038710  18.0489750  56.1138930  52.9836070
  29.7627430  58.3148850  64.5241580  29.0308550  58.8235660  64.8731680
  29.3651770  57.4978830  64.2230360  26.2004820  54.9903050  62.9294070
  26.2040880  54.5493000  62.0798610  27.0955940  55.3120380  63.0365890
  22.0507200  54.8729540  61.8888280  21.7107250  55.3504770  62.6455330
  21.2884520  54.4194660  61.5289380  26.2624970  55.9915130  55.9200830
  26.3837790  55.9501610  56.8686650  25.8773480  56.8539280  55.7647560
  30.2253340  53.7682530  63.9364520  30.2426080  54.2191180  64.7806370
  29.9768920  52.8688170  64.1497960  25.2746470  58.3016270  55.3184130
  24.7063370  57.8534520  54.6920040  25.9835470  58.6609050  54.7849280
  26.5012790  59.0504830  64.6759480  26.8682920  58.5763400  65.4220820
  26.3117850  59.9246400  65.0167820  19.3653280  53.7948520  60.8052950
  19.0800200  53.4304190  61.6431570  19.3032140  53.0628980  60.1916090
  24.2912160  58.0913470  66.9943690  23.9869230  58.9705450  67.2194050
  25.2458620  58.1513260  67.0301130  22.8193950  62.2974460  57.5910540
  22.0456210  61.7572080  57.4309260  23.5488580  61.7781070  57.2528300
  33.5781930  61.2939820  63.3836930  34.2981050  61.7895110  62.9933040
  33.3763750  60.6157710  62.7390800  29.0391870  52.6877780  57.5266320
  28.2256480  52.1890950  57.4511630  28.8453820  53.5276030  57.1102670
  31.7540260  57.0597430  55.8228480  32.6419880  57.3714660  55.6479820
  31.7245350  56.1869680  55.4309060  22.8631350  61.9654840  61.2289350
  23.3810020  61.1623100  61.1746240  22.4115370  61.9033980  62.0706180
  27.7500850  63.2321120  56.5016650  28.0916550  63.9763350  56.0059970
  26.9213560  63.5452240  56.8641480  34.0254530  58.3709270  55.2908340
  33.9418250  58.8023490  54.4404780  34.7448720  58.8307620  55.7235160
  35.0541780  65.2251530  58.0190470  34.4117940  64.5707150  58.2934190
  34.6672440  65.6306620  57.2431140  30.6328260  62.5536960  61.8662160
  30.9852080  61.9565090  61.2063530  29.7490590  62.2281190  62.0370410
  26.7191540  63.3134650  59.2732570  27.4062670  63.8603860  59.6540160
  25.9323960  63.8575380  59.3082180  18.8583940  58.9307470  54.7649650
  19.7278790  59.2132270  55.0485570  18.3674260  59.7443340  54.6498460
  26.0218750  60.3180680  58.8857930  26.4781530  61.1285930  59.1118120
  25.6706960  60.0003820  59.7176420  28.3251360  65.8287020  66.1150230
  28.9693580  66.0346400  66.7923650  28.6880800  65.0675420  65.6621080
  21.9230530  50.6618330  59.3580450  21.7945160  50.6536230  60.3065370
  21.0992550  51.0001420  59.0071460  29.5983440  63.8319370  64.8327680
  30.2405670  63.1312530  64.9459850  30.1232790  64.6117810  64.6524570
  33.4439160  64.1167990  54.5566820  33.2176740  63.3998430  55.1491460
  33.0535360  63.8680430  53.7188570  19.2255190  68.1434850  55.3311280
  19.5852830  68.7424190  54.6768550  19.0847530  68.6894740  56.1046310
  33.0255410  62.0339930  56.2180980  32.7377110  62.4952620  57.0058860
  33.8207580  61.5737700  56.4865200  25.2423810  65.5266050  56.1484950
  25.2333910  66.2595740  55.5329460  24.3222170  65.2797630  56.2411910
  20.8430450  60.7480940  56.8931710  20.2358400  61.4879840  56.9027010
  21.3179800  60.8380300  56.0669910  30.4163240  54.9131760  66.5688600
  30.7844060  54.0926970  66.8968170  29.5561440  54.9733650  66.9844250
  33.7825270  53.8688700  57.3776160  33.1538430  53.9734370  56.6634390
  33.2877190  54.0885480  58.1670040  28.2283410  65.5894290  54.8110140
  28.3295390  65.3858280  53.8812120  27.3285150  65.3352570  55.0157920
  25.7509300  56.1474650  58.7934040  25.0425450  56.6160990  59.2347650
  26.0353780  55.4896660  59.4279230  27.3765230  57.5671350  66.7926570
  27.8750480  58.0417170  67.4578420  27.5188180  56.6434870  66.9996600
  29.7824730  52.8725310  60.2329830  29.6592510  52.8911440  59.2839340
  30.7309290  52.9204250  60.3528230  26.8701520  68.1080610  59.5057810
  27.1243020  68.0702000  58.5837180  25.9214000  67.9813940  59.4986060
  23.9544320  54.4559730  56.1684750  24.8034850  54.8929880  56.1024940
  23.5875590  54.7679990  56.9956810  32.8754100  59.0272490  61.0816320
  31.9344240  59.0422720  61.2564010  33.1898170  58.2408450  61.5276620
  22.8535740  60.7092090  54.6420280  23.6199010  60.5973450  55.2045710
  22.9310430  60.0130060  53.9897050  21.5482500  58.1417160  55.3253170
  21.6286090  57.1944670  55.4370570  22.4402250  58.4724040  55.4313830
  34.8779680  66.1981340  62.7570580  35.0027100  67.0212510  63.2294390
  35.7445240  65.9872070  62.4094730  22.3497210  68.2912550  62.4287710
  23.0859690  67.7428010  62.6996280  22.7338130  69.1568560  62.2893700
  19.2342690  64.3586120  58.3029220  18.3082470  64.6007260  58.2934630
  19.6999120  65.1860380  58.1813970  25.4599520  67.4642860  54.2513280
  26.2528130  67.7531690  53.7995070  24.9403870  67.0335030  53.5725760
  34.5129690  66.6912990  55.6750020  34.2271200  66.2778130  54.8604200
  34.3149240  67.6200700  55.5550540  25.9776920  62.6846270  54.1155630
  25.8727560  62.0698620  54.8417010  25.8101140  62.1612160  53.3318640
  29.2179650  61.7466300  54.7197620  28.6689750  62.1935600  55.3640360
  29.8398910  61.2415550  55.2435290  24.8854770  60.7057220  56.6162920
  25.3071190  60.5397090  57.4594310  25.0105610  59.8957450  56.1218060
  27.3982410  59.7294830  53.8640020  27.9188070  59.0143850  53.4981170
  28.0450810  60.3680700  54.1640530  26.3015930  52.2089380  66.5358580
  25.8533230  52.2313640  65.6904130  25.6681130  51.8108400  67.1328880
  26.7075480  61.1043710  67.1571020  27.1263590  61.9476440  66.9847260
  25.7884110  61.2415750  66.9277800  31.3827280  59.3897080  67.1171370
  30.8562500  59.9139700  66.5136510  31.7258620  60.0224470  67.7481100
  23.7813670  56.7790450  53.5621080  23.5802730  55.9157810  53.9234420
  23.6105720  56.6923810  52.6242680  31.2601980  51.5898680  56.0907960
  31.5404270  50.7466580  56.4467380  30.4867710  51.8221790  56.6046710
  22.5796470  53.8791070  53.5498960  22.8822370  53.8858500  52.6418110
  23.3191060  53.5288930  54.0466620  25.7981400  52.8225690  54.5355160
  25.4503400  52.1449680  53.9557610  25.9994170  52.3615200  55.3498550
  27.9630440  67.8106440  56.1541760  28.8581230  68.1491410  56.1760520
  27.9948070  67.0885850  55.5266040  21.6026600  63.1833490  54.3828760
  22.0401470  63.7263160  55.0386340  22.0874330  62.3580440  54.3925100
  18.8172400  65.9722520  61.8349020  19.1475410  65.1043580  61.6027660
  19.2463400  66.1781040  62.6653980  23.4134320  64.3031530  59.4950990
  23.1129860  64.1796500  60.3954900  23.3071810  63.4440120  59.0866720
  19.3062610  66.8393110  64.5730650  18.8693600  67.0193910  65.4054800
  19.8740290  67.5967730  64.4312370  36.1826240  64.0827930  54.1977670
  35.3519200  64.1504580  54.6684900  36.3598070  64.9732050  53.8944530
  35.6382700  60.8275410  56.7011870  36.4001610  61.3972060  56.8071560
  35.6537070  60.2602610  57.4720180  19.1387040  59.3513340  60.9319530
  18.4835880  59.0824980  60.2879230  19.9764990  59.2417820  60.4821510
  36.6442670  61.6825510  61.5453800  37.0151500  60.8992830  61.1389770
  37.2844600  62.3714610  61.3671100  33.6276430  63.0662090  66.9584120
  32.8136270  63.4959250  67.2209910  34.0350630  63.6780500  66.3453170
  35.6901870  61.1209780  53.8584390  35.9650710  62.0288660  53.7303610
  35.5012610  61.0572310  54.7946380  32.0877480  54.1454630  55.1538020
  32.5062360  53.9585610  54.3134680  31.7813540  53.2933680  55.4640950
  35.5867210  59.0578770  58.8513820  35.2110810  58.2906700  58.4195110
  34.8570330  59.4401470  59.3388750  20.1762970  59.7365910  65.4722870
  20.5436010  59.6493310  66.3518890  19.6073790  58.9732460  65.3729730
  18.3525120  56.5612270  56.8744860  17.4489200  56.8242470  56.6996520
  18.8365740  56.8323440  56.0944820  34.8618170  57.2836260  62.1521060
  35.3855650  56.7898910  61.5211230  35.4477590  57.4186620  62.8968630
  35.0407890  57.3676130  65.6740610  34.0910600  57.3339670  65.7885600
  35.2220900  58.2776240  65.4390380  20.8952330  55.6177810  54.7839240
  21.6044030  55.1961030  54.2986520  20.1792270  55.6853040  54.1522590
  20.5426490  51.6717140  53.8241890  21.2654620  52.2126080  54.1423110
  20.8151010  51.3980560  52.9483430  34.3518140  56.5409610  58.0913470
  34.8477260  56.3080480  58.8762350  34.1534210  55.7021450  57.6751110
  20.2318680  50.9223330  63.7264510  20.8794870  50.3720710  63.2859670
  20.6520520  51.1766480  64.5480320  35.7805300  55.1770560  60.6251150
  35.6704580  55.0226600  61.5633420  36.5412890  54.6491500  60.3826560
  34.1271020  51.1164690  67.0834150  34.7643240  51.7298830  67.4493340
  34.2745910  51.1525350  66.1383380  36.6695570  53.0078480  53.8657290
  37.5944880  52.8759660  53.6575580  36.6471360  53.0871300  54.8193740
  36.7434060  53.7789140  56.4914000  35.9485560  53.7134260  57.0206910
  36.9477340  54.7139780  56.4799350  33.6852480  67.8180690  60.4852390
  34.2811550  67.4965260  59.8086810  33.9430630  67.3452510  61.2765660
  19.9850680  51.0779000  66.4689830  19.6365500  51.5342820  67.2348010
  19.6538380  50.1836130  66.5512260  25.2921080  65.8058190  66.2352740
  25.0512440  66.0732750  65.3483260  26.2323720  65.9763920  66.2903600
  36.5525240  67.8252570  67.0363380  36.0583520  68.2221440  66.3190510
  35.9438530  67.2001780  67.4300660  30.8758100  50.4893080  65.9570830
  30.0017940  50.8228190  65.7543760  30.7668850  50.0166260  66.7822700
  31.7830080  52.6963950  67.3412550  31.4543440  51.8815710  66.9614280
  32.7312380  52.6533760  67.2178240  34.2364690  68.4675990  64.3150120
  33.7767660  69.2191800  63.9408140  33.6077150  67.7482460  64.2564920
  21.0615310  64.5619230  66.7048840  20.3349370  63.9424520  66.6374790
  21.1224460  64.9559840  65.8346920  24.6660410  66.7764230  63.4898250
  25.1825430  66.1651590  62.9646510  25.3157790  67.2793010  63.9809260
  27.4055910  67.6672720  64.3167230  27.6933720  67.4127020  63.4400240
  27.9179130  67.1150080  64.9072800  28.6232920  51.4062920  64.8963740
  27.8404710  51.8808420  65.1760500  28.3295850  50.5017750  64.7876920
  33.1753990  52.1086020  62.9412830  33.6162080  52.0531120  62.0934430
  32.9061580  53.0244030  63.0123010  35.0392560  51.7401260  60.9521650
  34.9780960  50.7962480  60.8052670  35.8184590  51.8481350  61.4975110
  19.3445310  67.8793620  59.9145600  19.1767350  67.2464300  60.6127490
  18.4779820  68.0853020  59.5639790  19.9673330  51.7110400  57.4177460
  20.7252690  51.8239280  56.8441490  19.5050500  52.5479600  57.3720890
  26.5087140  53.8249670  60.4079770  25.6961650  53.4506560  60.0675650
  27.0128780  53.0694750  60.7100960  31.0112120  50.4892120  61.6462840
  31.6141490  51.0612330  62.1211360  30.2705110  51.0531560  61.4236740
  34.1546720  50.8913680  56.9203120  34.3497350  51.7897130  57.1870550
  33.3676590  50.6600760  57.4136070  20.9508010  66.5726850  57.3595740
  20.4255630  66.9534880  56.6557700  20.8752590  67.1977620  58.0805450
  22.3398480  52.2374450  55.9579430  22.8691240  51.4504250  55.8287380
  22.9726800  52.9165640  56.1914960  24.5336320  51.9749590  59.0124820
  23.9039060  51.2736900  59.1794950  23.9941460  52.7353720  58.7957980
  35.7073330  68.1314390  58.6809680  35.8825520  67.4452130  58.0370600
  35.0094900  68.6561440  58.2886350  23.5500980  68.5209230  56.2344990
  24.2819800  68.2368510  55.6868880  23.8094650  68.2822510  57.1244370
  22.7115770  64.6373960  56.2391320  22.0824650  65.1059060  56.7877150
  22.8263600  63.7923180  56.6737510  28.2983530  60.4658640  44.2701790
  27.5225630  59.9859080  44.5600360  28.9496460  59.7864290  44.0957950
  22.3149360  60.7778450  45.1477550  21.4834240  60.5227160  45.5474060
  22.9230340  60.8489220  45.8835470  32.3190960  64.8718830  43.0500920
  31.8572490  64.1006070  43.3788090  33.1316510  64.8984900  43.5553370
  22.2950620  64.8118540  45.3435570  22.5978660  63.9216280  45.1645790
  23.0394210  65.3688760  45.1157820  18.6874320  58.3385990  44.8159640
  19.2590430  57.5708190  44.8163280  18.6875860  58.6374750  43.9066250
  28.5454270  67.1576840  42.6704910  27.9265710  67.6134340  42.0999350
  29.4006050  67.3128300  42.2694610  27.7392520  63.1415830  44.2771950
  27.6700800  62.2005770  44.1161080  28.5012380  63.2317240  44.8494520
  19.9299190  53.7470350  46.6028570  19.7502030  52.8496100  46.8831330
  19.5279270  54.2942220  47.2775520  20.5485860  56.2430850  45.2110910
  21.2295970  56.5069220  45.8298310  20.2333910  55.4031720  45.5448920
  24.7410430  57.2898210  44.2983500  25.2488650  57.7879180  44.9388520
  25.2723670  56.5133410  44.1222860  36.8421360  55.4603400  48.0012850
  36.1373530  55.8485110  47.4827960  37.1079280  56.1553690  48.6033780
  23.0246530  51.9296770  48.5646920  23.0264970  52.4469160  47.7592820
  22.1950840  51.4526950  48.5416850  24.2749380  61.5691950  46.7420420
  23.9418760  62.1960870  47.3841490  24.4516060  62.0953830  45.9622090
  22.7061860  53.6406730  46.5717370  23.0478670  54.4848780  46.2771240
  21.7677670  53.7890470  46.6882710  23.4868480  63.5372750  48.5569600
  24.1042480  64.2123830  48.2754050  22.6261600  63.9460730  48.4657100
  18.7800820  62.7272610  37.4376450  18.4028800  63.2159710  36.7061350
  19.0373890  63.3997890  38.0682980  34.4046070  65.0012160  46.4724240
  33.7209590  65.6711270  46.4640910  34.9440360  65.1992810  45.7069100
  35.8570210  54.8291820  44.6005970  34.9095120  54.8630800  44.7321400
  36.1820200  55.6430770  44.9855330  31.9404810  66.8456290  45.1869420
  31.9531970  66.4418580  44.3191680  31.3880030  67.6203580  45.0830850
  31.3390250  61.7486130  46.5152030  31.7559040  61.5346240  45.6805490
  32.0630070  62.0058920  47.0860650  35.2852350  60.1473350  46.6068270
  34.4570980  60.2166440  46.1318400  35.8802830  60.7327660  46.1384100
  32.2494360  56.9342670  47.5523140  31.8365540  57.7596380  47.8063130
  31.5170310  56.3487710  47.3599500  24.3827150  59.7202570  42.4141810
  23.9784150  59.0079820  41.9187710  24.4690270  59.3755810  43.3029850
  24.8508850  63.4070130  44.5781020  24.5537140  62.8015600  43.8988800
  25.8008670  63.4447440  44.4670380  23.0955770  56.4945780  46.1940850
  23.6470360  56.6041120  45.4194100  23.6099280  56.8683380  46.9096080
  32.9394460  66.9802000  48.2404120  32.4625020  67.7874190  48.0476730
  32.2556250  66.3280330  48.3930330  23.9427280  63.1451820  51.2288820
  23.0455810  63.3691790  51.4762220  23.9680150  63.2686760  50.2800220
  22.7698500  60.0165140  49.8046190  22.6306270  60.8887940  50.1733590
  21.8879860  59.6737950  49.6594130  29.0927880  64.9341010  41.1111320
  29.5323790  65.6765340  40.6966710  29.0314770  65.1767580  42.0350280
  24.5678850  65.9586840  52.0131340  24.5394280  66.3629790  51.1459770
  24.4043820  65.0297200  51.8502940  21.0831780  58.6147550  39.9148460
  20.9629380  59.3409640  39.3029730  20.7732670  57.8450460  39.4376370
  36.5193670  66.7413940  53.3095510  36.9953390  67.2196830  53.9884590
  37.1400830  66.6731430  52.5841010  18.7217150  61.7862690  45.7217100
  18.7997570  61.9211460  44.7772820  19.3358830  61.0778580  45.9145220
  19.9664780  63.4862880  42.1323280  19.5592860  63.6277470  41.2776880
  20.8577790  63.2023040  41.9294490  35.9226920  63.9326790  50.4695520
  36.0489980  63.6938670  49.5512700  35.9648300  63.1011330  50.9417600
  29.7843660  67.6354790  49.0390330  30.2988330  67.5462800  49.8412760
  28.9412740  67.9814490  49.3318240  31.7598060  67.9210130  38.4674330
  31.5999200  67.6313070  39.3656160  31.5944770  67.1450260  37.9319560
  24.2386440  67.7008660  40.2445950  24.0628920  66.7844200  40.0313750
  23.3842180  68.0595950  40.4843750  31.4624190  65.4297690  37.0272330
  30.7689350  65.4274980  36.3674610  32.2047050  65.0057010  36.5966500
  31.0274120  67.0560400  41.1020820  31.4831070  66.2749780  41.4159440
  31.3666640  67.7667220  41.6462000  35.7750930  55.9859250  51.4345260
  35.1595200  56.4938920  50.9060720  35.4547350  55.0857580  51.3771200
  18.7776670  62.8276860  48.2611560  18.9407710  62.3582220  47.4430930
  19.2429120  62.3200420  48.9260400  23.5495440  51.9582620  43.2972130
  23.1063590  52.7392160  42.9656650  24.1080430  52.2812510  44.0043070
  27.8365250  54.8251140  48.9007450  27.3744620  55.0334160  49.7127390
  27.4343360  54.0110490  48.5978120  32.8369760  56.0460090  50.0304110
  31.9863350  55.7465840  50.3513180  32.6771550  56.2902100  49.1187930
  29.9319470  57.5461840  52.1302900  30.2572880  56.7125590  51.7905130
  30.7199800  58.0690360  52.2781230  25.5871340  52.5029950  45.1561730
  25.8843670  53.4092780  45.0753750  26.1356900  52.0148730  44.5421300
  25.7808870  57.9801770  51.6913650  25.6852470  57.0396500  51.5414050
  26.6240850  58.2016840  51.2961720  20.9119410  54.3915440  49.8447430
  20.5182800  55.2390650  50.0520210  20.2237810  53.7541810  50.0356070
  27.4864460  54.4750410  52.9144170  26.7962780  54.2822610  53.5490260
  28.2296760  54.7585050  53.4468470  18.2136460  52.3143900  43.8777510
  17.9249510  52.8846760  44.5902490  18.9582220  51.8348350  44.2408740
  18.4006690  56.2564020  35.0880230  18.3181360  57.1994780  35.2295220
  18.0489750  56.1138930  34.2092580  29.7627430  58.3148850  45.7498090
  29.0308550  58.8235660  46.0988190  29.3651770  57.4978830  45.4486870
  22.0507200  54.8729540  43.1144790  21.7107250  55.3504770  43.8711840
  21.2884520  54.4194660  42.7545890  30.2253340  53.7682530  45.1621030
  30.2426080  54.2191180  46.0062880  29.9768920  52.8688170  45.3754470
  33.6524090  51.1814710  51.0007410  33.9769860  50.4504370  51.5265390
  33.6880600  50.8628350  50.0988400  20.3515650  62.2028290  50.4207370
  19.9670440  61.5621960  51.0190330  20.6627840  62.9064410  50.9902100
  26.5012790  59.0504830  45.9015990  26.8682920  58.5763400  46.6477330
  26.3117850  59.9246400  46.2424330  19.3653280  53.7948520  42.0309460
  19.0800200  53.4304190  42.8688080  19.3032140  53.0628980  41.4172600
  24.2912160  58.0913470  48.2200200  23.9869230  58.9705450  48.4450560
  25.2458620  58.1513260  48.2557640  22.8193950  62.2974460  38.8167050
  22.0456210  61.7572080  38.6565770  23.5488580  61.7781070  38.4784810
  33.5781930  61.2939820  44.6093440  34.2981050  61.7895110  44.2189550
  33.3763750  60.6157710  43.9647310  28.9600730  61.3648880  50.4962440
  28.8938040  60.4444550  50.2420030  28.3305870  61.4624320  51.2107080
  22.8631350  61.9654840  42.4545860  23.3810020  61.1623100  42.4002750
  22.4115370  61.9033980  43.2962690  27.7500850  63.2321120  37.7273160
  28.0916550  63.9763350  37.2316480  26.9213560  63.5452240  38.0897990
  20.3475890  58.9316210  49.3671560  19.9890830  59.5970060  49.9544900
  20.0530450  58.0999760  49.7384180  23.5489010  59.3900450  52.2511110
  23.2489150  59.5357630  51.3538930  24.3200250  58.8305740  52.1584500
  28.8917460  64.1869450  50.2466240  28.9062000  63.2550410  50.0285150
  28.1842560  64.2729210  50.8856010  35.1028670  60.8276790  49.5934820
  34.3776860  61.4205570  49.3964210  35.6304130  60.8200330  48.7948190
  30.6328260  62.5536960  43.0918670  30.9852080  61.9565090  42.4320040
  29.7490590  62.2281190  43.2626920  26.7191540  63.3134650  40.4989080
  27.4062670  63.8603860  40.8796670  25.9323960  63.8575380  40.5338690
  18.8583940  58.9307470  35.9906160  19.7278790  59.2132270  36.2742080
  18.3674260  59.7443340  35.8754970  28.3251360  65.8287020  47.3406740
  28.9693580  66.0346400  48.0180160  28.6880800  65.0675420  46.8877590
  21.9230530  50.6618330  40.5836960  21.7945160  50.6536230  41.5321880
  21.0992550  51.0001420  40.2327970  29.5983440  63.8319370  46.0584190
  30.2405670  63.1312530  46.1716360  30.1232790  64.6117810  45.8781080
  31.3721060  64.6314270  49.2620250  31.7077300  65.2180960  49.9398170
  30.4521400  64.5006980  49.4918040  19.2255190  68.1434850  36.5567790
  19.5852830  68.7424190  35.9025060  19.0847530  68.6894740  37.3302820
  18.9224460  52.4209450  50.0443660  18.2082980  52.6206370  50.6496270
  19.3419500  51.6449020  50.4158460  19.2097050  66.4089710  51.0310190
  19.3188170  65.4684450  50.8905580  18.5577610  66.6744460  50.3823920
  27.2009640  64.6805600  52.4308310  26.8806510  63.9614840  52.9754000
  26.5268000  65.3560670  52.5044370  25.2423810  65.5266050  37.3741460
  25.2333910  66.2595740  36.7585970  24.3222170  65.2797630  37.4668420
  20.8430450  60.7480940  38.1188220  20.2358400  61.4879840  38.1283520
  21.3179800  60.8380300  37.2926420  30.4163240  54.9131760  47.7945110
  30.7844060  54.0926970  48.1224680  29.5561440  54.9733650  48.2100760
  28.2283410  65.5894290  36.0366650  28.3295390  65.3858280  35.1068630
  27.3285150  65.3352570  36.2414430  27.3765230  57.5671350  48.0183080
  27.8750480  58.0417170  48.6834930  27.5188180  56.6434870  48.2253110
  26.8701520  68.1080610  40.7314320  27.1243020  68.0702000  39.8093690
  25.9214000  67.9813940  40.7242570  34.5832090  53.7839310  48.8611470
  34.0805690  54.5244710  49.2005280  35.3988750  54.1723310  48.5448260
  21.5482500  58.1417160  36.5509680  21.6286090  57.1944670  36.6627080
  22.4402250  58.4724040  36.6570340  34.8779680  66.1981340  43.9827090
  35.0027100  67.0212510  44.4550900  35.7445240  65.9872070  43.6351240
  22.3497210  68.2912550  43.6544220  23.0859690  67.7428010  43.9252790
  22.7338130  69.1568560  43.5150210  19.2342690  64.3586120  39.5285730
  18.3082470  64.6007260  39.5191140  19.6999120  65.1860380  39.4070480
  21.3555490  67.4758620  52.8429800  22.1568220  67.7970670  53.2565200
  20.8407310  67.1154200  53.5649710  25.4599520  67.4642860  35.4769790
  26.2528130  67.7531690  35.0251580  24.9403870  67.0335030  34.7982270
  30.1920120  63.5838490  52.7905210  29.5858280  63.6070090  52.0500960
  29.8874230  62.8521530  53.3272460  31.6220490  67.3118780  51.4014620
  32.5742240  67.2276800  51.3514860  31.4748710  67.9760490  52.0748410
  19.0753300  59.9632080  51.7865850  19.5792320  59.3839360  52.3582080
  18.3360720  60.2472310  52.3242220  25.9776920  62.6846270  35.3412140
  25.8727560  62.0698620  36.0673520  25.8101140  62.1612160  34.5575150
  26.1291240  61.3703070  51.3201370  25.3636910  61.9388070  51.2356040
  26.3107200  61.0779280  50.4269600  33.2714590  63.1008400  51.8776390
  34.0124060  63.4384160  51.3743850  32.5087270  63.2700460  51.3246160
  21.1076380  58.1061670  52.6815920  21.1481720  57.8075540  53.5901150
  21.9621880  58.5069280  52.5223440  23.0482190  56.6853770  50.6490410
  22.5178650  56.1944720  50.0213750  23.7170260  57.1137970  50.1148340
  31.9460250  61.1523230  50.4131600  32.3601270  61.3068310  51.2622020
  31.0111250  61.2778450  50.5757380  32.4182420  58.4919390  52.4170750
  33.0003190  57.7371710  52.3291230  32.5944190  59.0226830  51.6402230
  23.5354490  53.6516140  50.7287700  23.4411360  53.0336890  50.0038570
  22.9551880  54.3782430  50.5017610  26.3015930  52.2089380  47.7615090
  25.8533230  52.2313640  46.9160640  25.6681130  51.8108400  48.3585390
  26.7075480  61.1043710  48.3827530  27.1263590  61.9476440  48.2103770
  25.7884110  61.2415750  48.1534310  29.0439380  58.8359890  49.7665370
  29.1635590  58.2401030  50.5060210  29.9033380  58.8729580  49.3466670
  31.3827280  59.3897080  48.3427880  30.8562500  59.9139700  47.7393020
  31.7258620  60.0224470  48.9737610  24.5582900  67.4096720  49.4985260
  24.0203990  68.1342780  49.1793960  24.8116860  66.9327060  48.7082600
  25.8108150  55.3781240  51.0241190  26.4007840  55.0697090  51.7119010
  24.9928390  54.9060990  51.1801090  30.6301580  54.9947050  51.2574210
  29.9417100  54.3328590  51.1924200  31.3507600  54.5485320  51.7022670
  27.4145110  68.6447930  49.7571910  27.3403810  69.5483070  50.0644280
  26.5123950  68.3259830  49.7293980  27.9630440  67.8106440  37.3798270
  28.8581230  68.1491410  37.4017030  27.9948070  67.0885850  36.7522550
  21.6026600  63.1833490  35.6085270  22.0401470  63.7263160  36.2642850
  22.0874330  62.3580440  35.6181610  18.8172400  65.9722520  43.0605530
  19.1475410  65.1043580  42.8284170  19.2463400  66.1781040  43.8910490
  23.4134320  64.3031530  40.7207500  23.1129860  64.1796500  41.6211410
  23.3071810  63.4440120  40.3123230  19.3062610  66.8393110  45.7987160
  18.8693600  67.0193910  46.6311310  19.8740290  67.5967730  45.6568880
  34.9424790  66.3410110  50.0864470  34.3426780  66.4002670  49.3428390
  35.0718690  65.4015090  50.2161320  19.1387040  59.3513340  42.1576040
  18.4835880  59.0824980  41.5135740  19.9764990  59.2417820  41.7078020
  33.6276430  63.0662090  48.1840630  32.8136270  63.4959250  48.4466420
  34.0350630  63.6780500  47.5709680  20.1762970  59.7365910  46.6979380
  20.5436010  59.6493310  47.5775400  19.6073790  58.9732460  46.5986240
  34.9766830  58.2050290  49.7109850  34.7452920  57.9763040  48.8107800
  35.2371380  59.1249840  49.6654740  19.7278970  56.6475000  50.6037800
  18.8335020  56.6141760  50.9431510  20.2676520  56.8461790  51.3689050
  33.4154900  53.4306720  52.4889550  34.2925080  53.4390120  52.8723550
  33.4275740  52.6937560  51.8781900  18.3525120  56.5612270  38.1001370
  17.4489200  56.8242470  37.9253030  18.8365740  56.8323440  37.3201330
  35.0407890  57.3676130  46.8997120  34.0910600  57.3339670  47.0142110
  35.2220900  58.2776240  46.6646890  20.8952330  55.6177810  36.0095750
  21.6044030  55.1961030  35.5243030  20.1792270  55.6853040  35.3779100
  20.5426490  51.6717140  35.0498400  21.2654620  52.2126080  35.3679620
  20.8151010  51.3980560  34.1739940  20.2318680  50.9223330  44.9521020
  20.8794870  50.3720710  44.5116180  20.6520520  51.1766480  45.7736830
  34.1271020  51.1164690  48.3090660  34.7643240  51.7298830  48.6749850
  34.2745910  51.1525350  47.3639890  19.9850680  51.0779000  47.6946340
  19.6365500  51.5342820  48.4604520  19.6538380  50.1836130  47.7768770
  21.5915050  64.2498600  51.8599530  21.5484680  63.8791510  52.7413990
  21.7226060  65.1876170  52.0001350  25.2921080  65.8058190  47.4609250
  25.0512440  66.0732750  46.5739770  26.2323720  65.9763920  47.5160110
  27.4975500  52.2690880  51.2165760  27.4364390  52.8612710  51.9661170
  28.4375880  52.1616840  51.0716020  30.1350060  51.9260940  50.8558050
  30.7490470  52.2440230  50.1939130  30.6799620  51.4409530  51.4753910
  36.5525240  67.8252570  48.2619890  36.0583520  68.2221440  47.5447020
  35.9438530  67.2001780  48.6557170  20.6571320  50.6055200  50.9697110
  21.2054310  50.4243250  50.2063220  20.7226630  49.8149310  51.5053420
  21.4303080  67.1960850  48.9797310  20.8363400  67.0645550  49.7187350
  21.4226920  66.3598990  48.5139410  30.8758100  50.4893080  47.1827340
  30.0017940  50.8228190  46.9800270  30.7668850  50.0166260  48.0079210
  31.7830080  52.6963950  48.5669060  31.4543440  51.8815710  48.1870790
  32.7312380  52.6533760  48.4434750  34.2364690  68.4675990  45.5406630
  33.7767660  69.2191800  45.1664650  33.6077150  67.7482460  45.4821430
  21.0615310  64.5619230  47.9305350  20.3349370  63.9424520  47.8631300
  21.1224460  64.9559840  47.0603430  24.6660410  66.7764230  44.7154760
  25.1825430  66.1651590  44.1903020  25.3157790  67.2793010  45.2065770
  27.4055910  67.6672720  45.5423740  27.6933720  67.4127020  44.6656750
  27.9179130  67.1150080  46.1329310  28.6232920  51.4062920  46.1220250
  27.8404710  51.8808420  46.4017010  28.3295850  50.5017750  46.0133430
  19.3445310  67.8793620  41.1402110  19.1767350  67.2464300  41.8384000
  18.4779820  68.0853020  40.7896300  19.9673330  51.7110400  38.6433970
  20.7252690  51.8239280  38.0698000  19.5050500  52.5479600  38.5977400
  20.9508010  66.5726850  38.5852250  20.4255630  66.9534880  37.8814210
  20.8752590  67.1977620  39.3061960  22.3398480  52.2374450  37.1835940
  22.8691240  51.4504250  37.0543890  22.9726800  52.9165640  37.4171470
  27.4728270  68.5888820  52.9091940  28.3995580  68.3533090  52.9527900
  27.4578700  69.4160820  52.4277970  24.6591880  51.2533570  52.6733820
  24.3776150  51.7567170  51.9094640  25.0411580  50.4555320  52.3075950
  23.5500980  68.5209230  37.4601500  24.2819800  68.2368510  36.9125390
  23.8094650  68.2822510  38.3500880  22.7115770  64.6373960  37.4647830
  22.0824650  65.1059060  38.0133660  22.8263600  63.7923180  37.8994020
  31.2607340  50.6687150  53.2514290  31.1472790  50.9881760  54.1465810
  32.0777080  51.0699660  52.9551570  34.0405830  67.8158680  52.7332980
  34.8331150  67.3207910  52.5258940  34.3338980  68.4948820  53.3408590
  22.2950620  64.8118540  26.5692080  22.5978660  63.9216280  26.3902300
  23.0394210  65.3688760  26.3414330  20.7241310  55.7380340  20.1576450
  19.8358010  56.0796310  20.0556330  21.0082500  55.5380660  19.2657280
  18.6874320  58.3385990  26.0416150  19.2590430  57.5708190  26.0419790
  18.6875860  58.6374750  25.1322760  28.5454270  67.1576840  23.8961420
  27.9265710  67.6134340  23.3255860  29.4006050  67.3128300  23.4951120
  27.7392520  63.1415830  25.5028460  27.6700800  62.2005770  25.3417590
  28.5012380  63.2317240  26.0751030  19.9299190  53.7470350  27.8285080
  19.7502030  52.8496100  28.1087840  19.5279270  54.2942220  28.5032030
  22.9002700  54.3211840  21.1914830  23.0069450  55.2215570  21.4983590
  21.9895060  54.2729810  20.9009480  20.5485860  56.2430850  26.4367420
  21.2295970  56.5069220  27.0554820  20.2333910  55.4031720  26.7705430
  29.4117620  62.0416080  21.2893330  28.7934890  62.5065530  20.7256050
  29.9240870  62.7343560  21.7062840  23.4868480  63.5372750  29.7826110
  24.1042480  64.2123830  29.5010560  22.6261600  63.9460730  29.6913610
  18.7800820  62.7272610  18.6632960  18.4028800  63.2159710  17.9317860
  19.0373890  63.3997890  19.2939490  31.9404810  66.8456290  26.4125930
  31.9531970  66.4418580  25.5448190  31.3880030  67.6203580  26.3087360
  33.2350230  63.5672510  21.5016100  33.1246560  62.6246840  21.6265520
  33.2318480  63.9288150  22.3878860  28.7770510  59.1937830  20.8578590
  27.8499790  59.1275210  21.0867060  28.9295330  60.1317960  20.7433830
  28.7639590  55.4654830  17.8545750  27.8243260  55.6268790  17.9398210
  29.0822850  56.1840510  17.3081740  32.8067800  60.7558130  21.3613840
  32.1880220  60.4177680  20.7140140  32.7892250  60.1117890  22.0693030
  24.8508850  63.4070130  25.8037530  24.5537140  62.8015600  25.1245310
  25.8008670  63.4447440  25.6926890  23.9427280  63.1451820  32.4545330
  23.0455810  63.3691790  32.7018730  23.9680150  63.2686760  31.5056730
  30.9832500  59.9944940  18.3686590  31.4225780  59.1567370  18.2224410
  31.6960920  60.6274340  18.4550730  29.0927880  64.9341010  22.3367830
  29.5323790  65.6765340  21.9223220  29.0314770  65.1767580  23.2606790
  24.5678850  65.9586840  33.2387850  24.5394280  66.3629790  32.3716280
  24.4043820  65.0297200  33.0759450  34.5649640  51.2487750  16.6827630
  34.2522300  51.3414580  17.5826700  35.3262110  51.8268780  16.6325060
  21.0831780  58.6147550  21.1404970  20.9629380  59.3409640  20.5286240
  20.7732670  57.8450460  20.6632880  18.7217150  61.7862690  26.9473610
  18.7997570  61.9211460  26.0029330  19.3358830  61.0778580  27.1401730
  19.9664780  63.4862880  23.3579790  19.5592860  63.6277470  22.5033390
  20.8577790  63.2023040  23.1551000  29.7843660  67.6354790  30.2646840
  30.2988330  67.5462800  31.0669270  28.9412740  67.9814490  30.5574750
  31.7598060  67.9210130  19.6930840  31.5999200  67.6313070  20.5912670
  31.5944770  67.1450260  19.1576070  24.2386440  67.7008660  21.4702460
  24.0628920  66.7844200  21.2570260  23.3842180  68.0595950  21.7100260
  31.4624190  65.4297690  18.2528840  30.7689350  65.4274980  17.5931120
  32.2047050  65.0057010  17.8223010  31.0274120  67.0560400  22.3277330
  31.4831070  66.2749780  22.6415950  31.3666640  67.7667220  22.8718510
  18.7776670  62.8276860  29.4868070  18.9407710  62.3582220  28.6687440
  19.2429120  62.3200420  30.1516910  26.6654260  51.5793320  19.4034470
  26.0408440  51.5753190  20.1287780  26.5784380  50.7124280  19.0070440
  30.5707420  57.0879560  20.8500540  29.9716310  57.8115360  20.6664160
  31.1187030  57.0256340  20.0676990  20.9119410  54.3915440  31.0703940
  20.5182800  55.2390650  31.2776720  20.2237810  53.7541810  31.2612580
  18.2136460  52.3143900  25.1034020  17.9249510  52.8846760  25.8159000
  18.9582220  51.8348350  25.4665250  18.4006690  56.2564020  16.3136740
  18.3181360  57.1994780  16.4551730  18.0489750  56.1138930  15.4349090
  26.2624970  55.9915130  18.3713850  26.3837790  55.9501610  19.3199670
  25.8773480  56.8539280  18.2160580  25.2746470  58.3016270  17.7697150
  24.7063370  57.8534520  17.1433060  25.9835470  58.6609050  17.2362300
  20.3515650  62.2028290  31.6463880  19.9670440  61.5621960  32.2446840
  20.6627840  62.9064410  32.2158610  19.3653280  53.7948520  23.2565970
  19.0800200  53.4304190  24.0944590  19.3032140  53.0628980  22.6429110
  22.8193950  62.2974460  20.0423560  22.0456210  61.7572080  19.8822280
  23.5488580  61.7781070  19.7041320  29.0391870  52.6877780  19.9779340
  28.2256480  52.1890950  19.9024650  28.8453820  53.5276030  19.5615690
  31.7540260  57.0597430  18.2741500  32.6419880  57.3714660  18.0992840
  31.7245350  56.1869680  17.8822080  27.7500850  63.2321120  18.9529670
  28.0916550  63.9763350  18.4572990  26.9213560  63.5452240  19.3154500
  20.3475890  58.9316210  30.5928070  19.9890830  59.5970060  31.1801410
  20.0530450  58.0999760  30.9640690  28.8917460  64.1869450  31.4722750
  28.9062000  63.2550410  31.2541660  28.1842560  64.2729210  32.1112520
  34.0254530  58.3709270  17.7421360  33.9418250  58.8023490  16.8917800
  34.7448720  58.8307620  18.1748180  35.0541780  65.2251530  20.4703490
  34.4117940  64.5707150  20.7447210  34.6672440  65.6306620  19.6944160
  26.7191540  63.3134650  21.7245590  27.4062670  63.8603860  22.1053180
  25.9323960  63.8575380  21.7595200  18.8583940  58.9307470  17.2162670
  19.7278790  59.2132270  17.4998590  18.3674260  59.7443340  17.1011480
  26.0218750  60.3180680  21.3370950  26.4781530  61.1285930  21.5631140
  25.6706960  60.0003820  22.1689440  28.3251360  65.8287020  28.5663250
  28.9693580  66.0346400  29.2436670  28.6880800  65.0675420  28.1134100
  21.9230530  50.6618330  21.8093470  21.7945160  50.6536230  22.7578390
  21.0992550  51.0001420  21.4584480  33.4439160  64.1167990  17.0079840
  33.2176740  63.3998430  17.6004480  33.0535360  63.8680430  16.1701590
  19.2255190  68.1434850  17.7824300  19.5852830  68.7424190  17.1281570
  19.0847530  68.6894740  18.5559330  18.9224460  52.4209450  31.2700170
  18.2082980  52.6206370  31.8752780  19.3419500  51.6449020  31.6414970
  33.0255410  62.0339930  18.6694000  32.7377110  62.4952620  19.4571880
  33.8207580  61.5737700  18.9378220  19.2097050  66.4089710  32.2566700
  19.3188170  65.4684450  32.1162090  18.5577610  66.6744460  31.6080430
  27.2009640  64.6805600  33.6564820  26.8806510  63.9614840  34.2010510
  26.5268000  65.3560670  33.7300880  25.2423810  65.5266050  18.5997970
  25.2333910  66.2595740  17.9842480  24.3222170  65.2797630  18.6924930
  20.8430450  60.7480940  19.3444730  20.2358400  61.4879840  19.3540030
  21.3179800  60.8380300  18.5182930  33.7825270  53.8688700  19.8289180
  33.1538430  53.9734370  19.1147410  33.2877190  54.0885480  20.6183060
  28.2283410  65.5894290  17.2623160  28.3295390  65.3858280  16.3325140
  27.3285150  65.3352570  17.4670940  25.7509300  56.1474650  21.2447060
  25.0425450  56.6160990  21.6860670  26.0353780  55.4896660  21.8792250
  26.8701520  68.1080610  21.9570830  27.1243020  68.0702000  21.0350200
  25.9214000  67.9813940  21.9499080  23.9544320  54.4559730  18.6197770
  24.8034850  54.8929880  18.5537960  23.5875590  54.7679990  19.4469830
  22.8535740  60.7092090  17.0933300  23.6199010  60.5973450  17.6558730
  22.9310430  60.0130060  16.4410070  21.5482500  58.1417160  17.7766190
  21.6286090  57.1944670  17.8883590  22.4402250  58.4724040  17.8826850
  22.3497210  68.2912550  24.8800730  23.0859690  67.7428010  25.1509300
  22.7338130  69.1568560  24.7406720  19.2342690  64.3586120  20.7542240
  18.3082470  64.6007260  20.7447650  19.6999120  65.1860380  20.6326990
  21.3555490  67.4758620  34.0686310  22.1568220  67.7970670  34.4821710
  20.8407310  67.1154200  34.7906220  25.4599520  67.4642860  16.7026300
  26.2528130  67.7531690  16.2508090  24.9403870  67.0335030  16.0238780
  30.1920120  63.5838490  34.0161720  29.5858280  63.6070090  33.2757470
  29.8874230  62.8521530  34.5528970  31.6220490  67.3118780  32.6271130
  32.5742240  67.2276800  32.5771370  31.4748710  67.9760490  33.3004920
  34.5129690  66.6912990  18.1263040  34.2271200  66.2778130  17.3117220
  34.3149240  67.6200700  18.0063560  19.0753300  59.9632080  33.0122360
  19.5792320  59.3839360  33.5838590  18.3360720  60.2472310  33.5498730
  25.9776920  62.6846270  16.5668650  25.8727560  62.0698620  17.2930030
  25.8101140  62.1612160  15.7831660  29.2179650  61.7466300  17.1710640
  28.6689750  62.1935600  17.8153380  29.8398910  61.2415550  17.6948310
  24.8854770  60.7057220  19.0675940  25.3071190  60.5397090  19.9107330
  25.0105610  59.8957450  18.5731080  27.3982410  59.7294830  16.3153040
  27.9188070  59.0143850  15.9494190  28.0450810  60.3680700  16.6153550
  23.7813670  56.7790450  16.0134100  23.5802730  55.9157810  16.3747440
  23.6105720  56.6923810  15.0755700  24.5582900  67.4096720  30.7241770
  24.0203990  68.1342780  30.4050470  24.8116860  66.9327060  29.9339110
  31.2601980  51.5898680  18.5420980  31.5404270  50.7466580  18.8980400
  30.4867710  51.8221790  19.0559730  22.5796470  53.8791070  16.0011980
  22.8822370  53.8858500  15.0931130  23.3191060  53.5288930  16.4979640
  27.4145110  68.6447930  30.9828420  27.3403810  69.5483070  31.2900790
  26.5123950  68.3259830  30.9550490  25.7981400  52.8225690  16.9868180
  25.4503400  52.1449680  16.4070630  25.9994170  52.3615200  17.8011570
  27.9630440  67.8106440  18.6054780  28.8581230  68.1491410  18.6273540
  27.9948070  67.0885850  17.9779060  21.6026600  63.1833490  16.8341780
  22.0401470  63.7263160  17.4899360  22.0874330  62.3580440  16.8438120
  18.8172400  65.9722520  24.2862040  19.1475410  65.1043580  24.0540680
  19.2463400  66.1781040  25.1167000  23.4134320  64.3031530  21.9464010
  23.1129860  64.1796500  22.8467920  23.3071810  63.4440120  21.5379740
  19.3062610  66.8393110  27.0243670  18.8693600  67.0193910  27.8567820
  19.8740290  67.5967730  26.8825390  36.1826240  64.0827930  16.6490690
  35.3519200  64.1504580  17.1197920  36.3598070  64.9732050  16.3457550
  35.6382700  60.8275410  19.1524890  36.4001610  61.3972060  19.2584580
  35.6537070  60.2602610  19.9233200  19.1387040  59.3513340  23.3832550
  18.4835880  59.0824980  22.7392250  19.9764990  59.2417820  22.9334530
  35.6901870  61.1209780  16.3097410  35.9650710  62.0288660  16.1816630
  35.5012610  61.0572310  17.2459400  32.0877480  54.1454630  17.6051040
  32.5062360  53.9585610  16.7647700  31.7813540  53.2933680  17.9153970
  20.1762970  59.7365910  27.9235890  20.5436010  59.6493310  28.8031910
  19.6073790  58.9732460  27.8242750  19.7278970  56.6475000  31.8294310
  18.8335020  56.6141760  32.1688020  20.2676520  56.8461790  32.5945560
  18.3525120  56.5612270  19.3257880  17.4489200  56.8242470  19.1509540
  18.8365740  56.8323440  18.5457840  20.8952330  55.6177810  17.2352260
  21.6044030  55.1961030  16.7499540  20.1792270  55.6853040  16.6035610
  20.5426490  51.6717140  16.2754910  21.2654620  52.2126080  16.5936130
  20.8151010  51.3980560  15.3996450  34.3518140  56.5409610  20.5426490
  34.8477260  56.3080480  21.3275370  34.1534210  55.7021450  20.1264130
  20.2318680  50.9223330  26.1777530  20.8794870  50.3720710  25.7372690
  20.6520520  51.1766480  26.9993340  36.6695570  53.0078480  16.3170310
  37.5944880  52.8759660  16.1088600  36.6471360  53.0871300  17.2706760
  36.7434060  53.7789140  18.9427020  35.9485560  53.7134260  19.4719930
  36.9477340  54.7139780  18.9312370  33.6852480  67.8180690  22.9365410
  34.2811550  67.4965260  22.2599830  33.9430630  67.3452510  23.7278680
  19.9850680  51.0779000  28.9202850  19.6365500  51.5342820  29.6861030
  19.6538380  50.1836130  29.0025280  21.5915050  64.2498600  33.0856040
  21.5484680  63.8791510  33.9670500  21.7226060  65.1876170  33.2257860
  25.2921080  65.8058190  28.6865760  25.0512440  66.0732750  27.7996280
  26.2323720  65.9763920  28.7416620  20.6571320  50.6055200  32.1953620
  21.2054310  50.4243250  31.4319730  20.7226630  49.8149310  32.7309930
  21.4303080  67.1960850  30.2053820  20.8363400  67.0645550  30.9443860
  21.4226920  66.3598990  29.7395920  21.0615310  64.5619230  29.1561860
  20.3349370  63.9424520  29.0887810  21.1224460  64.9559840  28.2859940
  24.6660410  66.7764230  25.9411270  25.1825430  66.1651590  25.4159530
  25.3157790  67.2793010  26.4322280  27.4055910  67.6672720  26.7680250
  27.6933720  67.4127020  25.8913260  27.9179130  67.1150080  27.3585820
  19.3445310  67.8793620  22.3658620  19.1767350  67.2464300  23.0640510
  18.4779820  68.0853020  22.0152810  19.9673330  51.7110400  19.8690480
  20.7252690  51.8239280  19.2954510  19.5050500  52.5479600  19.8233910
  34.1546720  50.8913680  19.3716140  34.3497350  51.7897130  19.6383570
  33.3676590  50.6600760  19.8649090  20.9508010  66.5726850  19.8108760
  20.4255630  66.9534880  19.1070720  20.8752590  67.1977620  20.5318470
  22.3398480  52.2374450  18.4092450  22.8691240  51.4504250  18.2800400
  22.9726800  52.9165640  18.6427980  24.5336320  51.9749590  21.4637840
  23.9039060  51.2736900  21.6307970  23.9941460  52.7353720  21.2471000
  27.4728270  68.5888820  34.1348450  28.3995580  68.3533090  34.1784410
  27.4578700  69.4160820  33.6534480  35.7073330  68.1314390  21.1322700
  35.8825520  67.4452130  20.4883620  35.0094900  68.6561440  20.7399370
  23.5500980  68.5209230  18.6858010  24.2819800  68.2368510  18.1381900
  23.8094650  68.2822510  19.5757390  22.7115770  64.6373960  18.6904340
  22.0824650  65.1059060  19.2390170  22.8263600  63.7923180  19.1250530
  30.1665490  58.6879620   4.8405540  30.0859540  57.7734230   4.5697250
  29.7529910  59.1846690   4.1345250  28.2983530  60.4658640   6.7214810
  27.5225630  59.9859080   7.0113380  28.9496460  59.7864290   6.5470970
  22.3149360  60.7778450   7.5990570  21.4834240  60.5227160   7.9987080
  22.9230340  60.8489220   8.3348490  32.3190960  64.8718830   5.5013940
  31.8572490  64.1006070   5.8301110  33.1316510  64.8984900   6.0066390
  22.2950620  64.8118540   7.7948590  22.5978660  63.9216280   7.6158810
  23.0394210  65.3688760   7.5670840  18.6874320  58.3385990   7.2672660
  19.2590430  57.5708190   7.2676300  18.6875860  58.6374750   6.3579270
  28.5454270  67.1576840   5.1217930  27.9265710  67.6134340   4.5512370
  29.4006050  67.3128300   4.7207630  27.7392520  63.1415830   6.7284970
  27.6700800  62.2005770   6.5674100  28.5012380  63.2317240   7.3007540
  19.9299190  53.7470350   9.0541590  19.7502030  52.8496100   9.3344350
  19.5279270  54.2942220   9.7288540  28.7697690  55.9486210   6.9553900
  29.1462510  55.0758090   6.8427570  28.6717200  56.2844910   6.0644340
  22.9002700  54.3211840   2.4171340  23.0069450  55.2215570   2.7240100
  21.9895060  54.2729810   2.1265990  32.5521810  53.4436650   3.8882240
  33.3731430  52.9533220   3.9307720  32.5855890  54.0334310   4.6414080
  20.5485860  56.2430850   7.6623930  21.2295970  56.5069220   8.2811330
  20.2333910  55.4031720   7.9961940  24.7410430  57.2898210   6.7496520
  25.2488650  57.7879180   7.3901540  25.2723670  56.5133410   6.5735880
  36.8421360  55.4603400  10.4525870  36.1373530  55.8485110   9.9340980
  37.1079280  56.1553690  11.0546800  23.0246530  51.9296770  11.0159940
  23.0264970  52.4469160  10.2105840  22.1950840  51.4526950  10.9929870
  29.4117620  62.0416080   2.5149840  28.7934890  62.5065530   1.9512560
  29.9240870  62.7343560   2.9319350  24.2749380  61.5691950   9.1933440
  23.9418760  62.1960870   9.8354510  24.4516060  62.0953830   8.4135110
  32.7883290  55.3837030   6.6609780  32.0838860  55.6721920   7.2412890
  33.1495450  56.1937140   6.3009340  22.7061860  53.6406730   9.0230390
  23.0478670  54.4848780   8.7284260  21.7677670  53.7890470   9.1395730
  23.4868480  63.5372750  11.0082620  24.1042480  64.2123830  10.7267070
  22.6261600  63.9460730  10.9170120  34.4046070  65.0012160   8.9237260
  33.7209590  65.6711270   8.9153930  34.9440360  65.1992810   8.1582120
  35.8570210  54.8291820   7.0518990  34.9095120  54.8630800   7.1834420
  36.1820200  55.6430770   7.4368350  26.3889750  51.1289000   5.3474980
  26.6964730  50.5735890   4.6310480  25.4590450  51.2633460   5.1647970
  31.9404810  66.8456290   7.6382440  31.9531970  66.4418580   6.7704700
  31.3880030  67.6203580   7.5343870  33.2350230  63.5672510   2.7272610
  33.1246560  62.6246840   2.8522030  33.2318480  63.9288150   3.6135370
  31.3390250  61.7486130   8.9665050  31.7559040  61.5346240   8.1318510
  32.0630070  62.0058920   9.5373670  28.7770510  59.1937830   2.0835100
  27.8499790  59.1275210   2.3123570  28.9295330  60.1317960   1.9690340
  35.2852350  60.1473350   9.0581290  34.4570980  60.2166440   8.5831420
  35.8802830  60.7327660   8.5897120  32.8067800  60.7558130   2.5870350
  32.1880220  60.4177680   1.9396650  32.7892250  60.1117890   3.2949540
  32.2494360  56.9342670  10.0036160  31.8365540  57.7596380  10.2576150
  31.5170310  56.3487710   9.8112520  24.3827150  59.7202570   4.8654830
  23.9784150  59.0079820   4.3700730  24.4690270  59.3755810   5.7542870
  24.8508850  63.4070130   7.0294040  24.5537140  62.8015600   6.3501820
  25.8008670  63.4447440   6.9183400  23.0955770  56.4945780   8.6453870
  23.6470360  56.6041120   7.8707120  23.6099280  56.8683380   9.3609100
  32.9394460  66.9802000  10.6917140  32.4625020  67.7874190  10.4989750
  32.2556250  66.3280330  10.8443350  23.9427280  63.1451820  13.6801840
  23.0455810  63.3691790  13.9275240  23.9680150  63.2686760  12.7313240
  22.7698500  60.0165140  12.2559210  22.6306270  60.8887940  12.6246610
  21.8879860  59.6737950  12.1107150  29.0927880  64.9341010   3.5624340
  29.5323790  65.6765340   3.1479730  29.0314770  65.1767580   4.4863300
  24.5678850  65.9586840  14.4644360  24.5394280  66.3629790  13.5972790
  24.4043820  65.0297200  14.3015960  21.0831780  58.6147550   2.3661480
  20.9629380  59.3409640   1.7542750  20.7732670  57.8450460   1.8889390
  36.5193670  66.7413940  15.7608530  36.9953390  67.2196830  16.4397610
  37.1400830  66.6731430  15.0354030  18.7217150  61.7862690   8.1730120
  18.7997570  61.9211460   7.2285840  19.3358830  61.0778580   8.3658240
  19.9664780  63.4862880   4.5836300  19.5592860  63.6277470   3.7289900
  20.8577790  63.2023040   4.3807510  35.9226920  63.9326790  12.9208540
  36.0489980  63.6938670  12.0025720  35.9648300  63.1011330  13.3930620
  29.7843660  67.6354790  11.4903350  30.2988330  67.5462800  12.2925780
  28.9412740  67.9814490  11.7831260  24.2386440  67.7008660   2.6958970
  24.0628920  66.7844200   2.4826770  23.3842180  68.0595950   2.9356770
  31.0274120  67.0560400   3.5533840  31.4831070  66.2749780   3.8672460
  31.3666640  67.7667220   4.0975020  35.7750930  55.9859250  13.8858280
  35.1595200  56.4938920  13.3573740  35.4547350  55.0857580  13.8284220
  18.7776670  62.8276860  10.7124580  18.9407710  62.3582220   9.8943950
  19.2429120  62.3200420  11.3773420  23.5495440  51.9582620   5.7485150
  23.1063590  52.7392160   5.4169670  24.1080430  52.2812510   6.4556090
  27.8365250  54.8251140  11.3520470  27.3744620  55.0334160  12.1640410
  27.4343360  54.0110490  11.0491140  32.8369760  56.0460090  12.4817130
  31.9863350  55.7465840  12.8026200  32.6771550  56.2902100  11.5700950
  29.9319470  57.5461840  14.5815920  30.2572880  56.7125590  14.2418150
  30.7199800  58.0690360  14.7294250  25.5871340  52.5029950   7.6074750
  25.8843670  53.4092780   7.5266770  26.1356900  52.0148730   6.9934320
  23.3409660  57.0816190   3.4766400  23.1150580  56.8653360   4.3813020
  22.5602190  57.5144650   3.1312370  25.7808870  57.9801770  14.1426670
  25.6852470  57.0396500  13.9927070  26.6240850  58.2016840  13.7474740
  29.1772290  55.7243100   4.1060330  29.5701860  56.0415300   3.2929020
  29.5389140  54.8454980   4.2204850  20.9119410  54.3915440  12.2960450
  20.5182800  55.2390650  12.5033230  20.2237810  53.7541810  12.4869090
  27.4864460  54.4750410  15.3657190  26.7962780  54.2822610  16.0003280
  28.2296760  54.7585050  15.8981490  18.2136460  52.3143900   6.3290530
  17.9249510  52.8846760   7.0415510  18.9582220  51.8348350   6.6921760
  29.7627430  58.3148850   8.2011110  29.0308550  58.8235660   8.5501210
  29.3651770  57.4978830   7.8999890  26.2004820  54.9903050   6.6063600
  26.2040880  54.5493000   5.7568140  27.0955940  55.3120380   6.7135420
  22.0507200  54.8729540   5.5657810  21.7107250  55.3504770   6.3224860
  21.2884520  54.4194660   5.2058910  30.2253340  53.7682530   7.6134050
  30.2426080  54.2191180   8.4575900  29.9768920  52.8688170   7.8267490
  33.6524090  51.1814710  13.4520430  33.9769860  50.4504370  13.9778410
  33.6880600  50.8628350  12.5501420  20.3515650  62.2028290  12.8720390
  19.9670440  61.5621960  13.4703350  20.6627840  62.9064410  13.4415120
  26.5012790  59.0504830   8.3529010  26.8682920  58.5763400   9.0990350
  26.3117850  59.9246400   8.6937350  19.3653280  53.7948520   4.4822480
  19.0800200  53.4304190   5.3201100  19.3032140  53.0628980   3.8685620
  24.2912160  58.0913470  10.6713220  23.9869230  58.9705450  10.8963580
  25.2458620  58.1513260  10.7070660  33.5781930  61.2939820   7.0606460
  34.2981050  61.7895110   6.6702570  33.3763750  60.6157710   6.4160330
  28.9600730  61.3648880  12.9475460  28.8938040  60.4444550  12.6933050
  28.3305870  61.4624320  13.6620100  22.8631350  61.9654840   4.9058880
  23.3810020  61.1623100   4.8515770  22.4115370  61.9033980   5.7475710
  20.3475890  58.9316210  11.8184580  19.9890830  59.5970060  12.4057920
  20.0530450  58.0999760  12.1897200  23.5489010  59.3900450  14.7024130
  23.2489150  59.5357630  13.8051950  24.3200250  58.8305740  14.6097520
  28.8917460  64.1869450  12.6979260  28.9062000  63.2550410  12.4798170
  28.1842560  64.2729210  13.3369030  35.1028670  60.8276790  12.0447840
  34.3776860  61.4205570  11.8477230  35.6304130  60.8200330  11.2461210
  30.6328260  62.5536960   5.5431690  30.9852080  61.9565090   4.8833060
  29.7490590  62.2281190   5.7139940  26.7191540  63.3134650   2.9502100
  27.4062670  63.8603860   3.3309690  25.9323960  63.8575380   2.9851710
  26.0218750  60.3180680   2.5627460  26.4781530  61.1285930   2.7887650
  25.6706960  60.0003820   3.3945950  28.3251360  65.8287020   9.7919760
  28.9693580  66.0346400  10.4693180  28.6880800  65.0675420   9.3390610
  21.9230530  50.6618330   3.0349980  21.7945160  50.6536230   3.9834900
  21.0992550  51.0001420   2.6840990  29.5983440  63.8319370   8.5097210
  30.2405670  63.1312530   8.6229380  30.1232790  64.6117810   8.3294100
  31.3721060  64.6314270  11.7133270  31.7077300  65.2180960  12.3911190
  30.4521400  64.5006980  11.9431060  18.9224460  52.4209450  12.4956680
  18.2082980  52.6206370  13.1009290  19.3419500  51.6449020  12.8671480
  19.2097050  66.4089710  13.4823210  19.3188170  65.4684450  13.3418600
  18.5577610  66.6744460  12.8336940  27.2009640  64.6805600  14.8821330
  26.8806510  63.9614840  15.4267020  26.5268000  65.3560670  14.9557390
  30.4163240  54.9131760  10.2458130  30.7844060  54.0926970  10.5737700
  29.5561440  54.9733650  10.6613780  25.7509300  56.1474650   2.4703570
  25.0425450  56.6160990   2.9117180  26.0353780  55.4896660   3.1048760
  27.3765230  57.5671350  10.4696100  27.8750480  58.0417170  11.1347950
  27.5188180  56.6434870  10.6766130  29.7824730  52.8725310   3.9099360
  29.6592510  52.8911440   2.9608870  30.7309290  52.9204250   4.0297760
  26.8701520  68.1080610   3.1827340  27.1243020  68.0702000   2.2606710
  25.9214000  67.9813940   3.1755590  34.5832090  53.7839310  11.3124490
  34.0805690  54.5244710  11.6518300  35.3988750  54.1723310  10.9961280
  32.8754100  59.0272490   4.7585850  31.9344240  59.0422720   4.9333540
  33.1898170  58.2408450   5.2046150  34.8779680  66.1981340   6.4340110
  35.0027100  67.0212510   6.9063920  35.7445240  65.9872070   6.0864260
  22.3497210  68.2912550   6.1057240  23.0859690  67.7428010   6.3765810
  22.7338130  69.1568560   5.9663230  19.2342690  64.3586120   1.9798750
  18.3082470  64.6007260   1.9704160  19.6999120  65.1860380   1.8583500
  21.3555490  67.4758620  15.2942820  22.1568220  67.7970670  15.7078220
  20.8407310  67.1154200  16.0162730  30.1920120  63.5838490  15.2418230
  29.5858280  63.6070090  14.5013980  29.8874230  62.8521530  15.7785480
  31.6220490  67.3118780  13.8527640  32.5742240  67.2276800  13.8027880
  31.4748710  67.9760490  14.5261430  19.0753300  59.9632080  14.2378870
  19.5792320  59.3839360  14.8095100  18.3360720  60.2472310  14.7755240
  26.1291240  61.3703070  13.7714390  25.3636910  61.9388070  13.6869060
  26.3107200  61.0779280  12.8782620  33.2714590  63.1008400  14.3289410
  34.0124060  63.4384160  13.8256870  32.5087270  63.2700460  13.7759180
  21.1076380  58.1061670  15.1328940  21.1481720  57.8075540  16.0414170
  21.9621880  58.5069280  14.9736460  23.0482190  56.6853770  13.1003430
  22.5178650  56.1944720  12.4726770  23.7170260  57.1137970  12.5661360
  31.9460250  61.1523230  12.8644620  32.3601270  61.3068310  13.7135040
  31.0111250  61.2778450  13.0270400  32.4182420  58.4919390  14.8683770
  33.0003190  57.7371710  14.7804250  32.5944190  59.0226830  14.0915250
  23.5354490  53.6516140  13.1800720  23.4411360  53.0336890  12.4551590
  22.9551880  54.3782430  12.9530630  26.3015930  52.2089380  10.2128110
  25.8533230  52.2313640   9.3673660  25.6681130  51.8108400  10.8098410
  26.7075480  61.1043710  10.8340550  27.1263590  61.9476440  10.6616790
  25.7884110  61.2415750  10.6047330  29.0439380  58.8359890  12.2178390
  29.1635590  58.2401030  12.9573230  29.9033380  58.8729580  11.7979690
  31.3827280  59.3897080  10.7940900  30.8562500  59.9139700  10.1906040
  31.7258620  60.0224470  11.4250630  24.5582900  67.4096720  11.9498280
  24.0203990  68.1342780  11.6306980  24.8116860  66.9327060  11.1595620
  25.8108150  55.3781240  13.4754210  26.4007840  55.0697090  14.1632030
  24.9928390  54.9060990  13.6314110  30.6301580  54.9947050  13.7087230
  29.9417100  54.3328590  13.6437220  31.3507600  54.5485320  14.1535690
  27.4145110  68.6447930  12.2084930  27.3403810  69.5483070  12.5157300
  26.5123950  68.3259830  12.1807000  18.8172400  65.9722520   5.5118550
  19.1475410  65.1043580   5.2797190  19.2463400  66.1781040   6.3423510
  23.4134320  64.3031530   3.1720520  23.1129860  64.1796500   4.0724430
  23.3071810  63.4440120   2.7636250  19.3062610  66.8393110   8.2500180
  18.8693600  67.0193910   9.0824330  19.8740290  67.5967730   8.1081900
  34.9424790  66.3410110  12.5377490  34.3426780  66.4002670  11.7941410
  35.0718690  65.4015090  12.6674340  19.1387040  59.3513340   4.6089060
  18.4835880  59.0824980   3.9648760  19.9764990  59.2417820   4.1591040
  36.6442670  61.6825510   5.2223330  37.0151500  60.8992830   4.8159300
  37.2844600  62.3714610   5.0440630  33.6276430  63.0662090  10.6353650
  32.8136270  63.4959250  10.8979440  34.0350630  63.6780500  10.0222700
  35.5867210  59.0578770   2.5283350  35.2110810  58.2906700   2.0964640
  34.8570330  59.4401470   3.0158280  20.1762970  59.7365910   9.1492400
  20.5436010  59.6493310  10.0288420  19.6073790  58.9732460   9.0499260
  34.9766830  58.2050290  12.1622870  34.7452920  57.9763040  11.2620820
  35.2371380  59.1249840  12.1167760  19.7278970  56.6475000  13.0550820
  18.8335020  56.6141760  13.3944530  20.2676520  56.8461790  13.8202070
  33.4154900  53.4306720  14.9402570  34.2925080  53.4390120  15.3236570
  33.4275740  52.6937560  14.3294920  34.8618170  57.2836260   5.8290590
  35.3855650  56.7898910   5.1980760  35.4477590  57.4186620   6.5738160
  35.0407890  57.3676130   9.3510140  34.0910600  57.3339670   9.4655130
  35.2220900  58.2776240   9.1159910  34.3518140  56.5409610   1.7683000
  34.8477260  56.3080480   2.5531880  34.1534210  55.7021450   1.3520640
  20.2318680  50.9223330   7.4034040  20.8794870  50.3720710   6.9629200
  20.6520520  51.1766480   8.2249850  35.7805300  55.1770560   4.3020680
  35.6704580  55.0226600   5.2402950  36.5412890  54.6491500   4.0596090
  34.1271020  51.1164690  10.7603680  34.7643240  51.7298830  11.1262870
  34.2745910  51.1525350   9.8152910  33.6852480  67.8180690   4.1621920
  34.2811550  67.4965260   3.4856340  33.9430630  67.3452510   4.9535190
  19.9850680  51.0779000  10.1459360  19.6365500  51.5342820  10.9117540
  19.6538380  50.1836130  10.2281790  21.5915050  64.2498600  14.3112550
  21.5484680  63.8791510  15.1927010  21.7226060  65.1876170  14.4514370
  25.2921080  65.8058190   9.9122270  25.0512440  66.0732750   9.0252790
  26.2323720  65.9763920   9.9673130  27.4975500  52.2690880  13.6678780
  27.4364390  52.8612710  14.4174190  28.4375880  52.1616840  13.5229040
  30.1350060  51.9260940  13.3071070  30.7490470  52.2440230  12.6452150
  30.6799620  51.4409530  13.9266930  36.5525240  67.8252570  10.7132910
  36.0583520  68.2221440   9.9960040  35.9438530  67.2001780  11.1070190
  20.6571320  50.6055200  13.4210130  21.2054310  50.4243250  12.6576240
  20.7226630  49.8149310  13.9566440  21.4303080  67.1960850  11.4310330
  20.8363400  67.0645550  12.1700370  21.4226920  66.3598990  10.9652430
  30.8758100  50.4893080   9.6340360  30.0017940  50.8228190   9.4313290
  30.7668850  50.0166260  10.4592230  31.7830080  52.6963950  11.0182080
  31.4543440  51.8815710  10.6383810  32.7312380  52.6533760  10.8947770
  34.2364690  68.4675990   7.9919650  33.7767660  69.2191800   7.6177670
  33.6077150  67.7482460   7.9334450  21.0615310  64.5619230  10.3818370
  20.3349370  63.9424520  10.3144320  21.1224460  64.9559840   9.5116450
  24.6660410  66.7764230   7.1667780  25.1825430  66.1651590   6.6416040
  25.3157790  67.2793010   7.6578790  27.4055910  67.6672720   7.9936760
  27.6933720  67.4127020   7.1169770  27.9179130  67.1150080   8.5842330
  28.6232920  51.4062920   8.5733270  27.8404710  51.8808420   8.8530030
  28.3295850  50.5017750   8.4646450  33.1753990  52.1086020   6.6182360
  33.6162080  52.0531120   5.7703960  32.9061580  53.0244030   6.6892540
  35.0392560  51.7401260   4.6291180  34.9780960  50.7962480   4.4822200
  35.8184590  51.8481350   5.1744640  19.3445310  67.8793620   3.5915130
  19.1767350  67.2464300   4.2897020  18.4779820  68.0853020   3.2409320
  26.5087140  53.8249670   4.0849300  25.6961650  53.4506560   3.7445180
  27.0128780  53.0694750   4.3870490  31.0112120  50.4892120   5.3232370
  31.6141490  51.0612330   5.7980890  30.2705110  51.0531560   5.1006270
  24.5336320  51.9749590   2.6894350  23.9039060  51.2736900   2.8564480
  23.9941460  52.7353720   2.4727510  27.4728270  68.5888820  15.3604960
  28.3995580  68.3533090  15.4040920  27.4578700  69.4160820  14.8790990
  35.7073330  68.1314390   2.3579210  35.8825520  67.4452130   1.7140130
  35.0094900  68.6561440   1.9655880  24.6591880  51.2533570  15.1246840
  24.3776150  51.7567170  14.3607660  25.0411580  50.4555320  14.7588970
  31.2607340  50.6687150  15.7027310  31.1472790  50.9881760  16.5978830
  32.0777080  51.0699660  15.4064590  34.0405830  67.8158680  15.1846000
  34.8331150  67.3207910  14.9771960  34.3338980  68.4948820  15.7921610
  30.1665490  39.9136130  61.1636010  30.0859540  38.9990740  60.8927720
  29.7529910  40.4103200  60.4575720  28.2983530  41.6915150  63.0445280
  27.5225630  41.2115590  63.3343850  28.9496460  41.0120800  62.8701440
  22.3149360  42.0034960  63.9221040  21.4834240  41.7483670  64.3217550
  22.9230340  42.0745730  64.6578960  32.3190960  46.0975340  61.8244410
  31.8572490  45.3262580  62.1531580  33.1316510  46.1241410  62.3296860
  22.2950620  46.0375050  64.1179060  22.5978660  45.1472790  63.9389280
  23.0394210  46.5945270  63.8901310  20.7241310  36.9636850  57.7063430
  19.8358010  37.3052820  57.6043310  21.0082500  36.7637170  56.8144260
  18.6874320  39.5642500  63.5903130  19.2590430  38.7964700  63.5906770
  18.6875860  39.8631260  62.6809740  28.5454270  48.3833350  61.4448400
  27.9265710  48.8390850  60.8742840  29.4006050  48.5384810  61.0438100
  27.7392520  44.3672340  63.0515440  27.6700800  43.4262280  62.8904570
  28.5012380  44.4573750  63.6238010  19.9299190  34.9726860  65.3772060
  19.7502030  34.0752610  65.6574820  19.5279270  35.5198730  66.0519010
  28.7697690  37.1742720  63.2784370  29.1462510  36.3014600  63.1658040
  28.6717200  37.5101420  62.3874810  22.9002700  35.5468350  58.7401810
  23.0069450  36.4472080  59.0470570  21.9895060  35.4986320  58.4496460
  32.5521810  34.6693160  60.2112710  33.3731430  34.1789730  60.2538190
  32.5855890  35.2590820  60.9644550  20.5485860  37.4687360  63.9854400
  21.2295970  37.7325730  64.6041800  20.2333910  36.6288230  64.3192410
  24.7410430  38.5154720  63.0726990  25.2488650  39.0135690  63.7132010
  25.2723670  37.7389920  62.8966350  36.8421360  36.6859910  66.7756340
  36.1373530  37.0741620  66.2571450  37.1079280  37.3810200  67.3777270
  23.0246530  33.1553280  67.3390410  23.0264970  33.6725670  66.5336310
  22.1950840  32.6783460  67.3160340  29.4117620  43.2672590  58.8380310
  28.7934890  43.7322040  58.2743030  29.9240870  43.9600070  59.2549820
  24.2749380  42.7948460  65.5163910  23.9418760  43.4217380  66.1584980
  24.4516060  43.3210340  64.7365580  32.7883290  36.6093540  62.9840250
  32.0838860  36.8978430  63.5643360  33.1495450  37.4193650  62.6239810
  22.7061860  34.8663240  65.3460860  23.0478670  35.7105290  65.0514730
  21.7677670  35.0146980  65.4626200  23.4868480  44.7629260  67.3313090
  24.1042480  45.4380340  67.0497540  22.6261600  45.1717240  67.2400590
  18.7800820  43.9529120  56.2119940  18.4028800  44.4416220  55.4804840
  19.0373890  44.6254400  56.8426470  34.4046070  46.2268670  65.2467730
  33.7209590  46.8967780  65.2384400  34.9440360  46.4249320  64.4812590
  35.8570210  36.0548330  63.3749460  34.9095120  36.0887310  63.5064890
  36.1820200  36.8687280  63.7598820  26.3889750  32.3545510  61.6705450
  26.6964730  31.7992400  60.9540950  25.4590450  32.4889970  61.4878440
  31.9404810  48.0712800  63.9612910  31.9531970  47.6675090  63.0935170
  31.3880030  48.8460090  63.8574340  33.2350230  44.7929020  59.0503080
  33.1246560  43.8503350  59.1752500  33.2318480  45.1544660  59.9365840
  31.3390250  42.9742640  65.2895520  31.7559040  42.7602750  64.4548980
  32.0630070  43.2315430  65.8604140  28.7770510  40.4194340  58.4065570
  27.8499790  40.3531720  58.6354040  28.9295330  41.3574470  58.2920810
  28.7639590  36.6911340  55.4032730  27.8243260  36.8525300  55.4885190
  29.0822850  37.4097020  54.8568720  35.2852350  41.3729860  65.3811760
  34.4570980  41.4422950  64.9061890  35.8802830  41.9584170  64.9127590
  32.8067800  41.9814640  58.9100820  32.1880220  41.6434190  58.2627120
  32.7892250  41.3374400  59.6180010  32.2494360  38.1599180  66.3266630
  31.8365540  38.9852890  66.5806620  31.5170310  37.5744220  66.1342990
  24.3827150  40.9459080  61.1885300  23.9784150  40.2336330  60.6931200
  24.4690270  40.6012320  62.0773340  24.8508850  44.6326640  63.3524510
  24.5537140  44.0272110  62.6732290  25.8008670  44.6703950  63.2413870
  23.0955770  37.7202290  64.9684340  23.6470360  37.8297630  64.1937590
  23.6099280  38.0939890  65.6839570  32.9394460  48.2058510  67.0147610
  32.4625020  49.0130700  66.8220220  32.2556250  47.5536840  67.1673820
  30.9832500  41.2201450  55.9173570  31.4225780  40.3823880  55.7711390
  31.6960920  41.8530850  56.0037710  29.0927880  46.1597520  59.8854810
  29.5323790  46.9021850  59.4710200  29.0314770  46.4024090  60.8093770
  34.5649640  32.4744260  54.2314610  34.2522300  32.5671090  55.1313680
  35.3262110  33.0525290  54.1812040  21.0831780  39.8404060  58.6891950
  20.9629380  40.5666150  58.0773220  20.7732670  39.0706970  58.2119860
  18.7217150  43.0119200  64.4960590  18.7997570  43.1467970  63.5516310
  19.3358830  42.3035090  64.6888710  19.9664780  44.7119390  60.9066770
  19.5592860  44.8533980  60.0520370  20.8577790  44.4279550  60.7037980
  31.7598060  49.1466640  57.2417820  31.5999200  48.8569580  58.1399650
  31.5944770  48.3706770  56.7063050  24.2386440  48.9265170  59.0189440
  24.0628920  48.0100710  58.8057240  23.3842180  49.2852460  59.2587240
  31.4624190  46.6554200  55.8015820  30.7689350  46.6531490  55.1418100
  32.2047050  46.2313520  55.3709990  31.0274120  48.2816910  59.8764310
  31.4831070  47.5006290  60.1902930  31.3666640  48.9923730  60.4205490
  18.7776670  44.0533370  67.0355050  18.9407710  43.5838730  66.2174420
  19.2429120  43.5456930  67.7003890  23.5495440  33.1839130  62.0715620
  23.1063590  33.9648670  61.7400140  24.1080430  33.5069020  62.7786560
  26.6654260  32.8049830  56.9521450  26.0408440  32.8009700  57.6774760
  26.5784380  31.9380790  56.5557420  25.5871340  33.7286460  63.9305220
  25.8843670  34.6349290  63.8497240  26.1356900  33.2405240  63.3164790
  23.3409660  38.3072700  59.7996870  23.1150580  38.0909870  60.7043490
  22.5602190  38.7401160  59.4542840  30.5707420  38.3136070  58.3987520
  29.9716310  39.0371870  58.2151140  31.1187030  38.2512850  57.6163970
  29.1772290  36.9499610  60.4290800  29.5701860  37.2671810  59.6159490
  29.5389140  36.0711490  60.5435320  18.2136460  33.5400410  62.6521000
  17.9249510  34.1103270  63.3645980  18.9582220  33.0604860  63.0152230
  18.4006690  37.4820530  53.8623720  18.3181360  38.4251290  54.0038710
  18.0489750  37.3395440  52.9836070  29.7627430  39.5405360  64.5241580
  29.0308550  40.0492170  64.8731680  29.3651770  38.7235340  64.2230360
  26.2004820  36.2159560  62.9294070  26.2040880  35.7749510  62.0798610
  27.0955940  36.5376890  63.0365890  22.0507200  36.0986050  61.8888280
  21.7107250  36.5761280  62.6455330  21.2884520  35.6451170  61.5289380
  26.2624970  37.2171640  55.9200830  26.3837790  37.1758120  56.8686650
  25.8773480  38.0795790  55.7647560  30.2253340  34.9939040  63.9364520
  30.2426080  35.4447690  64.7806370  29.9768920  34.0944680  64.1497960
  25.2746470  39.5272780  55.3184130  24.7063370  39.0791030  54.6920040
  25.9835470  39.8865560  54.7849280  26.5012790  40.2761340  64.6759480
  26.8682920  39.8019910  65.4220820  26.3117850  41.1502910  65.0167820
  19.3653280  35.0205030  60.8052950  19.0800200  34.6560700  61.6431570
  19.3032140  34.2885490  60.1916090  24.2912160  39.3169980  66.9943690
  23.9869230  40.1961960  67.2194050  25.2458620  39.3769770  67.0301130
  22.8193950  43.5230970  57.5910540  22.0456210  42.9828590  57.4309260
  23.5488580  43.0037580  57.2528300  33.5781930  42.5196330  63.3836930
  34.2981050  43.0151620  62.9933040  33.3763750  41.8414220  62.7390800
  29.0391870  33.9134290  57.5266320  28.2256480  33.4147460  57.4511630
  28.8453820  34.7532540  57.1102670  31.7540260  38.2853940  55.8228480
  32.6419880  38.5971170  55.6479820  31.7245350  37.4126190  55.4309060
  22.8631350  43.1911350  61.2289350  23.3810020  42.3879610  61.1746240
  22.4115370  43.1290490  62.0706180  27.7500850  44.4577630  56.5016650
  28.0916550  45.2019860  56.0059970  26.9213560  44.7708750  56.8641480
  34.0254530  39.5965780  55.2908340  33.9418250  40.0280000  54.4404780
  34.7448720  40.0564130  55.7235160  35.0541780  46.4508040  58.0190470
  34.4117940  45.7963660  58.2934190  34.6672440  46.8563130  57.2431140
  30.6328260  43.7793470  61.8662160  30.9852080  43.1821600  61.2063530
  29.7490590  43.4537700  62.0370410  26.7191540  44.5391160  59.2732570
  27.4062670  45.0860370  59.6540160  25.9323960  45.0831890  59.3082180
  18.8583940  40.1563980  54.7649650  19.7278790  40.4388780  55.0485570
  18.3674260  40.9699850  54.6498460  26.0218750  41.5437190  58.8857930
  26.4781530  42.3542440  59.1118120  25.6706960  41.2260330  59.7176420
  28.3251360  47.0543530  66.1150230  28.9693580  47.2602910  66.7923650
  28.6880800  46.2931930  65.6621080  21.9230530  31.8874840  59.3580450
  21.7945160  31.8792740  60.3065370  21.0992550  32.2257930  59.0071460
  29.5983440  45.0575880  64.8327680  30.2405670  44.3569040  64.9459850
  30.1232790  45.8374320  64.6524570  33.4439160  45.3424500  54.5566820
  33.2176740  44.6254940  55.1491460  33.0535360  45.0936940  53.7188570
  19.2255190  49.3691360  55.3311280  19.5852830  49.9680700  54.6768550
  19.0847530  49.9151250  56.1046310  33.0255410  43.2596440  56.2180980
  32.7377110  43.7209130  57.0058860  33.8207580  42.7994210  56.4865200
  25.2423810  46.7522560  56.1484950  25.2333910  47.4852250  55.5329460
  24.3222170  46.5054140  56.2411910  20.8430450  41.9737450  56.8931710
  20.2358400  42.7136350  56.9027010  21.3179800  42.0636810  56.0669910
  30.4163240  36.1388270  66.5688600  30.7844060  35.3183480  66.8968170
  29.5561440  36.1990160  66.9844250  33.7825270  35.0945210  57.3776160
  33.1538430  35.1990880  56.6634390  33.2877190  35.3141990  58.1670040
  28.2283410  46.8150800  54.8110140  28.3295390  46.6114790  53.8812120
  27.3285150  46.5609080  55.0157920  25.7509300  37.3731160  58.7934040
  25.0425450  37.8417500  59.2347650  26.0353780  36.7153170  59.4279230
  27.3765230  38.7927860  66.7926570  27.8750480  39.2673680  67.4578420
  27.5188180  37.8691380  66.9996600  29.7824730  34.0981820  60.2329830
  29.6592510  34.1167950  59.2839340  30.7309290  34.1460760  60.3528230
  26.8701520  49.3337120  59.5057810  27.1243020  49.2958510  58.5837180
  25.9214000  49.2070450  59.4986060  23.9544320  35.6816240  56.1684750
  24.8034850  36.1186390  56.1024940  23.5875590  35.9936500  56.9956810
  32.8754100  40.2529000  61.0816320  31.9344240  40.2679230  61.2564010
  33.1898170  39.4664960  61.5276620  22.8535740  41.9348600  54.6420280
  23.6199010  41.8229960  55.2045710  22.9310430  41.2386570  53.9897050
  21.5482500  39.3673670  55.3253170  21.6286090  38.4201180  55.4370570
  22.4402250  39.6980550  55.4313830  34.8779680  47.4237850  62.7570580
  35.0027100  48.2469020  63.2294390  35.7445240  47.2128580  62.4094730
  22.3497210  49.5169060  62.4287710  23.0859690  48.9684520  62.6996280
  22.7338130  50.3825070  62.2893700  19.2342690  45.5842630  58.3029220
  18.3082470  45.8263770  58.2934630  19.6999120  46.4116890  58.1813970
  25.4599520  48.6899370  54.2513280  26.2528130  48.9788200  53.7995070
  24.9403870  48.2591540  53.5725760  34.5129690  47.9169500  55.6750020
  34.2271200  47.5034640  54.8604200  34.3149240  48.8457210  55.5550540
  25.9776920  43.9102780  54.1155630  25.8727560  43.2955130  54.8417010
  25.8101140  43.3868670  53.3318640  29.2179650  42.9722810  54.7197620
  28.6689750  43.4192110  55.3640360  29.8398910  42.4672060  55.2435290
  24.8854770  41.9313730  56.6162920  25.3071190  41.7653600  57.4594310
  25.0105610  41.1213960  56.1218060  27.3982410  40.9551340  53.8640020
  27.9188070  40.2400360  53.4981170  28.0450810  41.5937210  54.1640530
  26.3015930  33.4345890  66.5358580  25.8533230  33.4570150  65.6904130
  25.6681130  33.0364910  67.1328880  26.7075480  42.3300220  67.1571020
  27.1263590  43.1732950  66.9847260  25.7884110  42.4672260  66.9277800
  31.3827280  40.6153590  67.1171370  30.8562500  41.1396210  66.5136510
  31.7258620  41.2480980  67.7481100  23.7813670  38.0046960  53.5621080
  23.5802730  37.1414320  53.9234420  23.6105720  37.9180320  52.6242680
  31.2601980  32.8155190  56.0907960  31.5404270  31.9723090  56.4467380
  30.4867710  33.0478300  56.6046710  22.5796470  35.1047580  53.5498960
  22.8822370  35.1115010  52.6418110  23.3191060  34.7545440  54.0466620
  25.7981400  34.0482200  54.5355160  25.4503400  33.3706190  53.9557610
  25.9994170  33.5871710  55.3498550  27.9630440  49.0362950  56.1541760
  28.8581230  49.3747920  56.1760520  27.9948070  48.3142360  55.5266040
  21.6026600  44.4090000  54.3828760  22.0401470  44.9519670  55.0386340
  22.0874330  43.5836950  54.3925100  18.8172400  47.1979030  61.8349020
  19.1475410  46.3300090  61.6027660  19.2463400  47.4037550  62.6653980
  23.4134320  45.5288040  59.4950990  23.1129860  45.4053010  60.3954900
  23.3071810  44.6696630  59.0866720  19.3062610  48.0649620  64.5730650
  18.8693600  48.2450420  65.4054800  19.8740290  48.8224240  64.4312370
  36.1826240  45.3084440  54.1977670  35.3519200  45.3761090  54.6684900
  36.3598070  46.1988560  53.8944530  35.6382700  42.0531920  56.7011870
  36.4001610  42.6228570  56.8071560  35.6537070  41.4859120  57.4720180
  19.1387040  40.5769850  60.9319530  18.4835880  40.3081490  60.2879230
  19.9764990  40.4674330  60.4821510  36.6442670  42.9082020  61.5453800
  37.0151500  42.1249340  61.1389770  37.2844600  43.5971120  61.3671100
  33.6276430  44.2918600  66.9584120  32.8136270  44.7215760  67.2209910
  34.0350630  44.9037010  66.3453170  35.6901870  42.3466290  53.8584390
  35.9650710  43.2545170  53.7303610  35.5012610  42.2828820  54.7946380
  32.0877480  35.3711140  55.1538020  32.5062360  35.1842120  54.3134680
  31.7813540  34.5190190  55.4640950  35.5867210  40.2835280  58.8513820
  35.2110810  39.5163210  58.4195110  34.8570330  40.6657980  59.3388750
  20.1762970  40.9622420  65.4722870  20.5436010  40.8749820  66.3518890
  19.6073790  40.1988970  65.3729730  18.3525120  37.7868780  56.8744860
  17.4489200  38.0498980  56.6996520  18.8365740  38.0579950  56.0944820
  34.8618170  38.5092770  62.1521060  35.3855650  38.0155420  61.5211230
  35.4477590  38.6443130  62.8968630  35.0407890  38.5932640  65.6740610
  34.0910600  38.5596180  65.7885600  35.2220900  39.5032750  65.4390380
  20.8952330  36.8434320  54.7839240  21.6044030  36.4217540  54.2986520
  20.1792270  36.9109550  54.1522590  20.5426490  32.8973650  53.8241890
  21.2654620  33.4382590  54.1423110  20.8151010  32.6237070  52.9483430
  34.3518140  37.7666120  58.0913470  34.8477260  37.5336990  58.8762350
  34.1534210  36.9277960  57.6751110  20.2318680  32.1479840  63.7264510
  20.8794870  31.5977220  63.2859670  20.6520520  32.4022990  64.5480320
  35.7805300  36.4027070  60.6251150  35.6704580  36.2483110  61.5633420
  36.5412890  35.8748010  60.3826560  34.1271020  32.3421200  67.0834150
  34.7643240  32.9555340  67.4493340  34.2745910  32.3781860  66.1383380
  36.6695570  34.2334990  53.8657290  37.5944880  34.1016170  53.6575580
  36.6471360  34.3127810  54.8193740  36.7434060  35.0045650  56.4914000
  35.9485560  34.9390770  57.0206910  36.9477340  35.9396290  56.4799350
  33.6852480  49.0437200  60.4852390  34.2811550  48.7221770  59.8086810
  33.9430630  48.5709020  61.2765660  19.9850680  32.3035510  66.4689830
  19.6365500  32.7599330  67.2348010  19.6538380  31.4092640  66.5512260
  25.2921080  47.0314700  66.2352740  25.0512440  47.2989260  65.3483260
  26.2323720  47.2020430  66.2903600  36.5525240  49.0509080  67.0363380
  36.0583520  49.4477950  66.3190510  35.9438530  48.4258290  67.4300660
  30.8758100  31.7149590  65.9570830  30.0017940  32.0484700  65.7543760
  30.7668850  31.2422770  66.7822700  31.7830080  33.9220460  67.3412550
  31.4543440  33.1072220  66.9614280  32.7312380  33.8790270  67.2178240
  34.2364690  49.6932500  64.3150120  33.7767660  50.4448310  63.9408140
  33.6077150  48.9738970  64.2564920  21.0615310  45.7875740  66.7048840
  20.3349370  45.1681030  66.6374790  21.1224460  46.1816350  65.8346920
  24.6660410  48.0020740  63.4898250  25.1825430  47.3908100  62.9646510
  25.3157790  48.5049520  63.9809260  27.4055910  48.8929230  64.3167230
  27.6933720  48.6383530  63.4400240  27.9179130  48.3406590  64.9072800
  28.6232920  32.6319430  64.8963740  27.8404710  33.1064930  65.1760500
  28.3295850  31.7274260  64.7876920  33.1753990  33.3342530  62.9412830
  33.6162080  33.2787630  62.0934430  32.9061580  34.2500540  63.0123010
  35.0392560  32.9657770  60.9521650  34.9780960  32.0218990  60.8052670
  35.8184590  33.0737860  61.4975110  19.3445310  49.1050130  59.9145600
  19.1767350  48.4720810  60.6127490  18.4779820  49.3109530  59.5639790
  19.9673330  32.9366910  57.4177460  20.7252690  33.0495790  56.8441490
  19.5050500  33.7736110  57.3720890  26.5087140  35.0506180  60.4079770
  25.6961650  34.6763070  60.0675650  27.0128780  34.2951260  60.7100960
  31.0112120  31.7148630  61.6462840  31.6141490  32.2868840  62.1211360
  30.2705110  32.2788070  61.4236740  34.1546720  32.1170190  56.9203120
  34.3497350  33.0153640  57.1870550  33.3676590  31.8857270  57.4136070
  20.9508010  47.7983360  57.3595740  20.4255630  48.1791390  56.6557700
  20.8752590  48.4234130  58.0805450  22.3398480  33.4630960  55.9579430
  22.8691240  32.6760760  55.8287380  22.9726800  34.1422150  56.1914960
  24.5336320  33.2006100  59.0124820  23.9039060  32.4993410  59.1794950
  23.9941460  33.9610230  58.7957980  35.7073330  49.3570900  58.6809680
  35.8825520  48.6708640  58.0370600  35.0094900  49.8817950  58.2886350
  23.5500980  49.7465740  56.2344990  24.2819800  49.4625020  55.6868880
  23.8094650  49.5079020  57.1244370  22.7115770  45.8630470  56.2391320
  22.0824650  46.3315570  56.7877150  22.8263600  45.0179690  56.6737510
  28.2983530  41.6915150  44.2701790  27.5225630  41.2115590  44.5600360
  28.9496460  41.0120800  44.0957950  22.3149360  42.0034960  45.1477550
  21.4834240  41.7483670  45.5474060  22.9230340  42.0745730  45.8835470
  22.2950620  46.0375050  45.3435570  22.5978660  45.1472790  45.1645790
  23.0394210  46.5945270  45.1157820  20.7241310  36.9636850  38.9319940
  19.8358010  37.3052820  38.8299820  21.0082500  36.7637170  38.0400770
  18.6874320  39.5642500  44.8159640  19.2590430  38.7964700  44.8163280
  18.6875860  39.8631260  43.9066250  19.9299190  34.9726860  46.6028570
  19.7502030  34.0752610  46.8831330  19.5279270  35.5198730  47.2775520
  22.9002700  35.5468350  39.9658320  23.0069450  36.4472080  40.2727080
  21.9895060  35.4986320  39.6752970  20.5485860  37.4687360  45.2110910
  21.2295970  37.7325730  45.8298310  20.2333910  36.6288230  45.5448920
  24.7410430  38.5154720  44.2983500  25.2488650  39.0135690  44.9388520
  25.2723670  37.7389920  44.1222860  36.8421360  36.6859910  48.0012850
  36.1373530  37.0741620  47.4827960  37.1079280  37.3810200  48.6033780
  23.0246530  33.1553280  48.5646920  23.0264970  33.6725670  47.7592820
  22.1950840  32.6783460  48.5416850  24.2749380  42.7948460  46.7420420
  23.9418760  43.4217380  47.3841490  24.4516060  43.3210340  45.9622090
  22.7061860  34.8663240  46.5717370  23.0478670  35.7105290  46.2771240
  21.7677670  35.0146980  46.6882710  23.4868480  44.7629260  48.5569600
  24.1042480  45.4380340  48.2754050  22.6261600  45.1717240  48.4657100
  18.7800820  43.9529120  37.4376450  18.4028800  44.4416220  36.7061350
  19.0373890  44.6254400  38.0682980  34.4046070  46.2268670  46.4724240
  33.7209590  46.8967780  46.4640910  34.9440360  46.4249320  45.7069100
  35.8570210  36.0548330  44.6005970  34.9095120  36.0887310  44.7321400
  36.1820200  36.8687280  44.9855330  31.3390250  42.9742640  46.5152030
  31.7559040  42.7602750  45.6805490  32.0630070  43.2315430  47.0860650
  35.2852350  41.3729860  46.6068270  34.4570980  41.4422950  46.1318400
  35.8802830  41.9584170  46.1384100  32.2494360  38.1599180  47.5523140
  31.8365540  38.9852890  47.8063130  31.5170310  37.5744220  47.3599500
  23.0955770  37.7202290  46.1940850  23.6470360  37.8297630  45.4194100
  23.6099280  38.0939890  46.9096080  32.9394460  48.2058510  48.2404120
  32.4625020  49.0130700  48.0476730  32.2556250  47.5536840  48.3930330
  23.9427280  44.3708330  51.2288820  23.0455810  44.5948300  51.4762220
  23.9680150  44.4943270  50.2800220  22.7698500  41.2421650  49.8046190
  22.6306270  42.1144450  50.1733590  21.8879860  40.8994460  49.6594130
  24.5678850  47.1843350  52.0131340  24.5394280  47.5886300  51.1459770
  24.4043820  46.2553710  51.8502940  21.0831780  39.8404060  39.9148460
  20.9629380  40.5666150  39.3029730  20.7732670  39.0706970  39.4376370
  36.5193670  47.9670450  53.3095510  36.9953390  48.4453340  53.9884590
  37.1400830  47.8987940  52.5841010  18.7217150  43.0119200  45.7217100
  18.7997570  43.1467970  44.7772820  19.3358830  42.3035090  45.9145220
  19.9664780  44.7119390  42.1323280  19.5592860  44.8533980  41.2776880
  20.8577790  44.4279550  41.9294490  35.9226920  45.1583300  50.4695520
  36.0489980  44.9195180  49.5512700  35.9648300  44.3267840  50.9417600
  29.7843660  48.8611300  49.0390330  30.2988330  48.7719310  49.8412760
  28.9412740  49.2071000  49.3318240  35.7750930  37.2115760  51.4345260
  35.1595200  37.7195430  50.9060720  35.4547350  36.3114090  51.3771200
  18.7776670  44.0533370  48.2611560  18.9407710  43.5838730  47.4430930
  19.2429120  43.5456930  48.9260400  27.8365250  36.0507650  48.9007450
  27.3744620  36.2590670  49.7127390  27.4343360  35.2367000  48.5978120
  32.8369760  37.2716600  50.0304110  31.9863350  36.9722350  50.3513180
  32.6771550  37.5158610  49.1187930  29.9319470  38.7718350  52.1302900
  30.2572880  37.9382100  51.7905130  30.7199800  39.2946870  52.2781230
  25.5871340  33.7286460  45.1561730  25.8843670  34.6349290  45.0753750
  26.1356900  33.2405240  44.5421300  25.7808870  39.2058280  51.6913650
  25.6852470  38.2653010  51.5414050  26.6240850  39.4273350  51.2961720
  20.9119410  35.6171950  49.8447430  20.5182800  36.4647160  50.0520210
  20.2237810  34.9798320  50.0356070  27.4864460  35.7006920  52.9144170
  26.7962780  35.5079120  53.5490260  28.2296760  35.9841560  53.4468470
  18.2136460  33.5400410  43.8777510  17.9249510  34.1103270  44.5902490
  18.9582220  33.0604860  44.2408740  18.4006690  37.4820530  35.0880230
  18.3181360  38.4251290  35.2295220  18.0489750  37.3395440  34.2092580
  29.7627430  39.5405360  45.7498090  29.0308550  40.0492170  46.0988190
  29.3651770  38.7235340  45.4486870  22.0507200  36.0986050  43.1144790
  21.7107250  36.5761280  43.8711840  21.2884520  35.6451170  42.7545890
  33.6524090  32.4071220  51.0007410  33.9769860  31.6760880  51.5265390
  33.6880600  32.0884860  50.0988400  20.3515650  43.4284800  50.4207370
  19.9670440  42.7878470  51.0190330  20.6627840  44.1320920  50.9902100
  26.5012790  40.2761340  45.9015990  26.8682920  39.8019910  46.6477330
  26.3117850  41.1502910  46.2424330  19.3653280  35.0205030  42.0309460
  19.0800200  34.6560700  42.8688080  19.3032140  34.2885490  41.4172600
  24.2912160  39.3169980  48.2200200  23.9869230  40.1961960  48.4450560
  25.2458620  39.3769770  48.2557640  22.8193950  43.5230970  38.8167050
  22.0456210  42.9828590  38.6565770  23.5488580  43.0037580  38.4784810
  33.5781930  42.5196330  44.6093440  34.2981050  43.0151620  44.2189550
  33.3763750  41.8414220  43.9647310  28.9600730  42.5905390  50.4962440
  28.8938040  41.6701060  50.2420030  28.3305870  42.6880830  51.2107080
  22.8631350  43.1911350  42.4545860  23.3810020  42.3879610  42.4002750
  22.4115370  43.1290490  43.2962690  20.3475890  40.1572720  49.3671560
  19.9890830  40.8226570  49.9544900  20.0530450  39.3256270  49.7384180
  23.5489010  40.6156960  52.2511110  23.2489150  40.7614140  51.3538930
  24.3200250  40.0562250  52.1584500  28.8917460  45.4125960  50.2466240
  28.9062000  44.4806920  50.0285150  28.1842560  45.4985720  50.8856010
  35.1028670  42.0533300  49.5934820  34.3776860  42.6462080  49.3964210
  35.6304130  42.0456840  48.7948190  18.8583940  40.1563980  35.9906160
  19.7278790  40.4388780  36.2742080  18.3674260  40.9699850  35.8754970
  28.3251360  47.0543530  47.3406740  28.9693580  47.2602910  48.0180160
  28.6880800  46.2931930  46.8877590  21.9230530  31.8874840  40.5836960
  21.7945160  31.8792740  41.5321880  21.0992550  32.2257930  40.2327970
  29.5983440  45.0575880  46.0584190  30.2405670  44.3569040  46.1716360
  30.1232790  45.8374320  45.8781080  31.3721060  45.8570780  49.2620250
  31.7077300  46.4437470  49.9398170  30.4521400  45.7263490  49.4918040
  19.2255190  49.3691360  36.5567790  19.5852830  49.9680700  35.9025060
  19.0847530  49.9151250  37.3302820  18.9224460  33.6465960  50.0443660
  18.2082980  33.8462880  50.6496270  19.3419500  32.8705530  50.4158460
  19.2097050  47.6346220  51.0310190  19.3188170  46.6940960  50.8905580
  18.5577610  47.9000970  50.3823920  27.2009640  45.9062110  52.4308310
  26.8806510  45.1871350  52.9754000  26.5268000  46.5817180  52.5044370
  20.8430450  41.9737450  38.1188220  20.2358400  42.7136350  38.1283520
  21.3179800  42.0636810  37.2926420  30.4163240  36.1388270  47.7945110
  30.7844060  35.3183480  48.1224680  29.5561440  36.1990160  48.2100760
  27.3765230  38.7927860  48.0183080  27.8750480  39.2673680  48.6834930
  27.5188180  37.8691380  48.2253110  34.5832090  35.0095820  48.8611470
  34.0805690  35.7501220  49.2005280  35.3988750  35.3979820  48.5448260
  21.5482500  39.3673670  36.5509680  21.6286090  38.4201180  36.6627080
  22.4402250  39.6980550  36.6570340  22.3497210  49.5169060  43.6544220
  23.0859690  48.9684520  43.9252790  22.7338130  50.3825070  43.5150210
  19.2342690  45.5842630  39.5285730  18.3082470  45.8263770  39.5191140
  19.6999120  46.4116890  39.4070480  21.3555490  48.7015130  52.8429800
  22.1568220  49.0227180  53.2565200  20.8407310  48.3410710  53.5649710
  30.1920120  44.8095000  52.7905210  29.5858280  44.8326600  52.0500960
  29.8874230  44.0778040  53.3272460  31.6220490  48.5375290  51.4014620
  32.5742240  48.4533310  51.3514860  31.4748710  49.2017000  52.0748410
  19.0753300  41.1888590  51.7865850  19.5792320  40.6095870  52.3582080
  18.3360720  41.4728820  52.3242220  26.1291240  42.5959580  51.3201370
  25.3636910  43.1644580  51.2356040  26.3107200  42.3035790  50.4269600
  33.2714590  44.3264910  51.8776390  34.0124060  44.6640670  51.3743850
  32.5087270  44.4956970  51.3246160  21.1076380  39.3318180  52.6815920
  21.1481720  39.0332050  53.5901150  21.9621880  39.7325790  52.5223440
  23.0482190  37.9110280  50.6490410  22.5178650  37.4201230  50.0213750
  23.7170260  38.3394480  50.1148340  31.9460250  42.3779740  50.4131600
  32.3601270  42.5324820  51.2622020  31.0111250  42.5034960  50.5757380
  32.4182420  39.7175900  52.4170750  33.0003190  38.9628220  52.3291230
  32.5944190  40.2483340  51.6402230  23.5354490  34.8772650  50.7287700
  23.4411360  34.2593400  50.0038570  22.9551880  35.6038940  50.5017610
  26.3015930  33.4345890  47.7615090  25.8533230  33.4570150  46.9160640
  25.6681130  33.0364910  48.3585390  26.7075480  42.3300220  48.3827530
  27.1263590  43.1732950  48.2103770  25.7884110  42.4672260  48.1534310
  29.0439380  40.0616400  49.7665370  29.1635590  39.4657540  50.5060210
  29.9033380  40.0986090  49.3466670  31.3827280  40.6153590  48.3427880
  30.8562500  41.1396210  47.7393020  31.7258620  41.2480980  48.9737610
  24.5582900  48.6353230  49.4985260  24.0203990  49.3599290  49.1793960
  24.8116860  48.1583570  48.7082600  25.8108150  36.6037750  51.0241190
  26.4007840  36.2953600  51.7119010  24.9928390  36.1317500  51.1801090
  30.6301580  36.2203560  51.2574210  29.9417100  35.5585100  51.1924200
  31.3507600  35.7741830  51.7022670  27.4145110  49.8704440  49.7571910
  27.3403810  50.7739580  50.0644280  26.5123950  49.5516340  49.7293980
  21.6026600  44.4090000  35.6085270  22.0401470  44.9519670  36.2642850
  22.0874330  43.5836950  35.6181610  18.8172400  47.1979030  43.0605530
  19.1475410  46.3300090  42.8284170  19.2463400  47.4037550  43.8910490
  19.3062610  48.0649620  45.7987160  18.8693600  48.2450420  46.6311310
  19.8740290  48.8224240  45.6568880  34.9424790  47.5666620  50.0864470
  34.3426780  47.6259180  49.3428390  35.0718690  46.6271600  50.2161320
  19.1387040  40.5769850  42.1576040  18.4835880  40.3081490  41.5135740
  19.9764990  40.4674330  41.7078020  33.6276430  44.2918600  48.1840630
  32.8136270  44.7215760  48.4466420  34.0350630  44.9037010  47.5709680
  20.1762970  40.9622420  46.6979380  20.5436010  40.8749820  47.5775400
  19.6073790  40.1988970  46.5986240  34.9766830  39.4306800  49.7109850
  34.7452920  39.2019550  48.8107800  35.2371380  40.3506350  49.6654740
  19.7278970  37.8731510  50.6037800  18.8335020  37.8398270  50.9431510
  20.2676520  38.0718300  51.3689050  33.4154900  34.6563230  52.4889550
  34.2925080  34.6646630  52.8723550  33.4275740  33.9194070  51.8781900
  18.3525120  37.7868780  38.1001370  17.4489200  38.0498980  37.9253030
  18.8365740  38.0579950  37.3201330  35.0407890  38.5932640  46.8997120
  34.0910600  38.5596180  47.0142110  35.2220900  39.5032750  46.6646890
  20.8952330  36.8434320  36.0095750  21.6044030  36.4217540  35.5243030
  20.1792270  36.9109550  35.3779100  20.5426490  32.8973650  35.0498400
  21.2654620  33.4382590  35.3679620  20.8151010  32.6237070  34.1739940
  20.2318680  32.1479840  44.9521020  20.8794870  31.5977220  44.5116180
  20.6520520  32.4022990  45.7736830  34.1271020  32.3421200  48.3090660
  34.7643240  32.9555340  48.6749850  34.2745910  32.3781860  47.3639890
  19.9850680  32.3035510  47.6946340  19.6365500  32.7599330  48.4604520
  19.6538380  31.4092640  47.7768770  21.5915050  45.4755110  51.8599530
  21.5484680  45.1048020  52.7413990  21.7226060  46.4132680  52.0001350
  25.2921080  47.0314700  47.4609250  25.0512440  47.2989260  46.5739770
  26.2323720  47.2020430  47.5160110  27.4975500  33.4947390  51.2165760
  27.4364390  34.0869220  51.9661170  28.4375880  33.3873350  51.0716020
  30.1350060  33.1517450  50.8558050  30.7490470  33.4696740  50.1939130
  30.6799620  32.6666040  51.4753910  36.5525240  49.0509080  48.2619890
  36.0583520  49.4477950  47.5447020  35.9438530  48.4258290  48.6557170
  20.6571320  31.8311710  50.9697110  21.2054310  31.6499760  50.2063220
  20.7226630  31.0405820  51.5053420  21.4303080  48.4217360  48.9797310
  20.8363400  48.2902060  49.7187350  21.4226920  47.5855500  48.5139410
  30.8758100  31.7149590  47.1827340  30.0017940  32.0484700  46.9800270
  30.7668850  31.2422770  48.0079210  31.7830080  33.9220460  48.5669060
  31.4543440  33.1072220  48.1870790  32.7312380  33.8790270  48.4434750
  34.2364690  49.6932500  45.5406630  33.7767660  50.4448310  45.1664650
  33.6077150  48.9738970  45.4821430  21.0615310  45.7875740  47.9305350
  20.3349370  45.1681030  47.8631300  21.1224460  46.1816350  47.0603430
  24.6660410  48.0020740  44.7154760  25.1825430  47.3908100  44.1903020
  25.3157790  48.5049520  45.2065770  27.4055910  48.8929230  45.5423740
  27.6933720  48.6383530  44.6656750  27.9179130  48.3406590  46.1329310
  28.6232920  32.6319430  46.1220250  27.8404710  33.1064930  46.4017010
  28.3295850  31.7274260  46.0133430  19.3445310  49.1050130  41.1402110
  19.1767350  48.4720810  41.8384000  18.4779820  49.3109530  40.7896300
  19.9673330  32.9366910  38.6433970  20.7252690  33.0495790  38.0698000
  19.5050500  33.7736110  38.5977400  20.9508010  47.7983360  38.5852250
  20.4255630  48.1791390  37.8814210  20.8752590  48.4234130  39.3061960
  27.4728270  49.8145330  52.9091940  28.3995580  49.5789600  52.9527900
  27.4578700  50.6417330  52.4277970  24.6591880  32.4790080  52.6733820
  24.3776150  32.9823680  51.9094640  25.0411580  31.6811830  52.3075950
  23.5500980  49.7465740  37.4601500  24.2819800  49.4625020  36.9125390
  23.8094650  49.5079020  38.3500880  31.2607340  31.8943660  53.2514290
  31.1472790  32.2138270  54.1465810  32.0777080  32.2956170  52.9551570
  34.0405830  49.0415190  52.7332980  34.8331150  48.5464420  52.5258940
  34.3338980  49.7205330  53.3408590  20.7241310  36.9636850  20.1576450
  19.8358010  37.3052820  20.0556330  21.0082500  36.7637170  19.2657280
  18.6874320  39.5642500  26.0416150  19.2590430  38.7964700  26.0419790
  18.6875860  39.8631260  25.1322760  19.9299190  34.9726860  27.8285080
  19.7502030  34.0752610  28.1087840  19.5279270  35.5198730  28.5032030
  22.9002700  35.5468350  21.1914830  23.0069450  36.4472080  21.4983590
  21.9895060  35.4986320  20.9009480  20.5485860  37.4687360  26.4367420
  21.2295970  37.7325730  27.0554820  20.2333910  36.6288230  26.7705430
  29.4117620  43.2672590  21.2893330  28.7934890  43.7322040  20.7256050
  29.9240870  43.9600070  21.7062840  18.7800820  43.9529120  18.6632960
  18.4028800  44.4416220  17.9317860  19.0373890  44.6254400  19.2939490
  26.3889750  32.3545510  24.1218470  26.6964730  31.7992400  23.4053970
  25.4590450  32.4889970  23.9391460  28.7770510  40.4194340  20.8578590
  27.8499790  40.3531720  21.0867060  28.9295330  41.3574470  20.7433830
  28.7639590  36.6911340  17.8545750  27.8243260  36.8525300  17.9398210
  29.0822850  37.4097020  17.3081740  24.3827150  40.9459080  23.6398320
  23.9784150  40.2336330  23.1444220  24.4690270  40.6012320  24.5286360
  30.9832500  41.2201450  18.3686590  31.4225780  40.3823880  18.2224410
  31.6960920  41.8530850  18.4550730  34.5649640  32.4744260  16.6827630
  34.2522300  32.5671090  17.5826700  35.3262110  33.0525290  16.6325060
  21.0831780  39.8404060  21.1404970  20.9629380  40.5666150  20.5286240
  20.7732670  39.0706970  20.6632880  18.7217150  43.0119200  26.9473610
  18.7997570  43.1467970  26.0029330  19.3358830  42.3035090  27.1401730
  19.9664780  44.7119390  23.3579790  19.5592860  44.8533980  22.5033390
  20.8577790  44.4279550  23.1551000  31.7598060  49.1466640  19.6930840
  31.5999200  48.8569580  20.5912670  31.5944770  48.3706770  19.1576070
  24.2386440  48.9265170  21.4702460  24.0628920  48.0100710  21.2570260
  23.3842180  49.2852460  21.7100260  31.4624190  46.6554200  18.2528840
  30.7689350  46.6531490  17.5931120  32.2047050  46.2313520  17.8223010
  31.0274120  48.2816910  22.3277330  31.4831070  47.5006290  22.6415950
  31.3666640  48.9923730  22.8718510  18.7776670  44.0533370  29.4868070
  18.9407710  43.5838730  28.6687440  19.2429120  43.5456930  30.1516910
  26.6654260  32.8049830  19.4034470  26.0408440  32.8009700  20.1287780
  26.5784380  31.9380790  19.0070440  23.3409660  38.3072700  22.2509890
  23.1150580  38.0909870  23.1556510  22.5602190  38.7401160  21.9055860
  30.5707420  38.3136070  20.8500540  29.9716310  39.0371870  20.6664160
  31.1187030  38.2512850  20.0676990  20.9119410  35.6171950  31.0703940
  20.5182800  36.4647160  31.2776720  20.2237810  34.9798320  31.2612580
  18.2136460  33.5400410  25.1034020  17.9249510  34.1103270  25.8159000
  18.9582220  33.0604860  25.4665250  18.4006690  37.4820530  16.3136740
  18.3181360  38.4251290  16.4551730  18.0489750  37.3395440  15.4349090
  22.0507200  36.0986050  24.3401300  21.7107250  36.5761280  25.0968350
  21.2884520  35.6451170  23.9802400  26.2624970  37.2171640  18.3713850
  26.3837790  37.1758120  19.3199670  25.8773480  38.0795790  18.2160580
  25.2746470  39.5272780  17.7697150  24.7063370  39.0791030  17.1433060
  25.9835470  39.8865560  17.2362300  20.3515650  43.4284800  31.6463880
  19.9670440  42.7878470  32.2446840  20.6627840  44.1320920  32.2158610
  19.3653280  35.0205030  23.2565970  19.0800200  34.6560700  24.0944590
  19.3032140  34.2885490  22.6429110  22.8193950  43.5230970  20.0423560
  22.0456210  42.9828590  19.8822280  23.5488580  43.0037580  19.7041320
  29.0391870  33.9134290  19.9779340  28.2256480  33.4147460  19.9024650
  28.8453820  34.7532540  19.5615690  31.7540260  38.2853940  18.2741500
  32.6419880  38.5971170  18.0992840  31.7245350  37.4126190  17.8822080
  22.8631350  43.1911350  23.6802370  23.3810020  42.3879610  23.6259260
  22.4115370  43.1290490  24.5219200  27.7500850  44.4577630  18.9529670
  28.0916550  45.2019860  18.4572990  26.9213560  44.7708750  19.3154500
  20.3475890  40.1572720  30.5928070  19.9890830  40.8226570  31.1801410
  20.0530450  39.3256270  30.9640690  34.0254530  39.5965780  17.7421360
  33.9418250  40.0280000  16.8917800  34.7448720  40.0564130  18.1748180
  35.0541780  46.4508040  20.4703490  34.4117940  45.7963660  20.7447210
  34.6672440  46.8563130  19.6944160  26.7191540  44.5391160  21.7245590
  27.4062670  45.0860370  22.1053180  25.9323960  45.0831890  21.7595200
  18.8583940  40.1563980  17.2162670  19.7278790  40.4388780  17.4998590
  18.3674260  40.9699850  17.1011480  26.0218750  41.5437190  21.3370950
  26.4781530  42.3542440  21.5631140  25.6706960  41.2260330  22.1689440
  21.9230530  31.8874840  21.8093470  21.7945160  31.8792740  22.7578390
  21.0992550  32.2257930  21.4584480  33.4439160  45.3424500  17.0079840
  33.2176740  44.6254940  17.6004480  33.0535360  45.0936940  16.1701590
  19.2255190  49.3691360  17.7824300  19.5852830  49.9680700  17.1281570
  19.0847530  49.9151250  18.5559330  18.9224460  33.6465960  31.2700170
  18.2082980  33.8462880  31.8752780  19.3419500  32.8705530  31.6414970
  33.0255410  43.2596440  18.6694000  32.7377110  43.7209130  19.4571880
  33.8207580  42.7994210  18.9378220  19.2097050  47.6346220  32.2566700
  19.3188170  46.6940960  32.1162090  18.5577610  47.9000970  31.6080430
  25.2423810  46.7522560  18.5997970  25.2333910  47.4852250  17.9842480
  24.3222170  46.5054140  18.6924930  20.8430450  41.9737450  19.3444730
  20.2358400  42.7136350  19.3540030  21.3179800  42.0636810  18.5182930
  33.7825270  35.0945210  19.8289180  33.1538430  35.1990880  19.1147410
  33.2877190  35.3141990  20.6183060  28.2283410  46.8150800  17.2623160
  28.3295390  46.6114790  16.3325140  27.3285150  46.5609080  17.4670940
  25.7509300  37.3731160  21.2447060  25.0425450  37.8417500  21.6860670
  26.0353780  36.7153170  21.8792250  29.7824730  34.0981820  22.6842850
  29.6592510  34.1167950  21.7352360  30.7309290  34.1460760  22.8041250
  26.8701520  49.3337120  21.9570830  27.1243020  49.2958510  21.0350200
  25.9214000  49.2070450  21.9499080  23.9544320  35.6816240  18.6197770
  24.8034850  36.1186390  18.5537960  23.5875590  35.9936500  19.4469830
  22.8535740  41.9348600  17.0933300  23.6199010  41.8229960  17.6558730
  22.9310430  41.2386570  16.4410070  21.5482500  39.3673670  17.7766190
  21.6286090  38.4201180  17.8883590  22.4402250  39.6980550  17.8826850
  22.3497210  49.5169060  24.8800730  23.0859690  48.9684520  25.1509300
  22.7338130  50.3825070  24.7406720  19.2342690  45.5842630  20.7542240
  18.3082470  45.8263770  20.7447650  19.6999120  46.4116890  20.6326990
  21.3555490  48.7015130  34.0686310  22.1568220  49.0227180  34.4821710
  20.8407310  48.3410710  34.7906220  25.4599520  48.6899370  16.7026300
  26.2528130  48.9788200  16.2508090  24.9403870  48.2591540  16.0238780
  34.5129690  47.9169500  18.1263040  34.2271200  47.5034640  17.3117220
  34.3149240  48.8457210  18.0063560  19.0753300  41.1888590  33.0122360
  19.5792320  40.6095870  33.5838590  18.3360720  41.4728820  33.5498730
  25.9776920  43.9102780  16.5668650  25.8727560  43.2955130  17.2930030
  25.8101140  43.3868670  15.7831660  29.2179650  42.9722810  17.1710640
  28.6689750  43.4192110  17.8153380  29.8398910  42.4672060  17.6948310
  21.1076380  39.3318180  33.9072430  21.1481720  39.0332050  34.8157660
  21.9621880  39.7325790  33.7479950  24.8854770  41.9313730  19.0675940
  25.3071190  41.7653600  19.9107330  25.0105610  41.1213960  18.5731080
  27.3982410  40.9551340  16.3153040  27.9188070  40.2400360  15.9494190
  28.0450810  41.5937210  16.6153550  23.7813670  38.0046960  16.0134100
  23.5802730  37.1414320  16.3747440  23.6105720  37.9180320  15.0755700
  31.2601980  32.8155190  18.5420980  31.5404270  31.9723090  18.8980400
  30.4867710  33.0478300  19.0559730  22.5796470  35.1047580  16.0011980
  22.8822370  35.1115010  15.0931130  23.3191060  34.7545440  16.4979640
  25.7981400  34.0482200  16.9868180  25.4503400  33.3706190  16.4070630
  25.9994170  33.5871710  17.8011570  27.9630440  49.0362950  18.6054780
  28.8581230  49.3747920  18.6273540  27.9948070  48.3142360  17.9779060
  21.6026600  44.4090000  16.8341780  22.0401470  44.9519670  17.4899360
  22.0874330  43.5836950  16.8438120  18.8172400  47.1979030  24.2862040
  19.1475410  46.3300090  24.0540680  19.2463400  47.4037550  25.1167000
  23.4134320  45.5288040  21.9464010  23.1129860  45.4053010  22.8467920
  23.3071810  44.6696630  21.5379740  19.3062610  48.0649620  27.0243670
  18.8693600  48.2450420  27.8567820  19.8740290  48.8224240  26.8825390
  36.1826240  45.3084440  16.6490690  35.3519200  45.3761090  17.1197920
  36.3598070  46.1988560  16.3457550  35.6382700  42.0531920  19.1524890
  36.4001610  42.6228570  19.2584580  35.6537070  41.4859120  19.9233200
  19.1387040  40.5769850  23.3832550  18.4835880  40.3081490  22.7392250
  19.9764990  40.4674330  22.9334530  35.6901870  42.3466290  16.3097410
  35.9650710  43.2545170  16.1816630  35.5012610  42.2828820  17.2459400
  32.0877480  35.3711140  17.6051040  32.5062360  35.1842120  16.7647700
  31.7813540  34.5190190  17.9153970  20.1762970  40.9622420  27.9235890
  20.5436010  40.8749820  28.8031910  19.6073790  40.1988970  27.8242750
  19.7278970  37.8731510  31.8294310  18.8335020  37.8398270  32.1688020
  20.2676520  38.0718300  32.5945560  18.3525120  37.7868780  19.3257880
  17.4489200  38.0498980  19.1509540  18.8365740  38.0579950  18.5457840
  20.8952330  36.8434320  17.2352260  21.6044030  36.4217540  16.7499540
  20.1792270  36.9109550  16.6035610  20.5426490  32.8973650  16.2754910
  21.2654620  33.4382590  16.5936130  20.8151010  32.6237070  15.3996450
  34.3518140  37.7666120  20.5426490  34.8477260  37.5336990  21.3275370
  34.1534210  36.9277960  20.1264130  20.2318680  32.1479840  26.1777530
  20.8794870  31.5977220  25.7372690  20.6520520  32.4022990  26.9993340
  36.6695570  34.2334990  16.3170310  37.5944880  34.1016170  16.1088600
  36.6471360  34.3127810  17.2706760  36.7434060  35.0045650  18.9427020
  35.9485560  34.9390770  19.4719930  36.9477340  35.9396290  18.9312370
  19.9850680  32.3035510  28.9202850  19.6365500  32.7599330  29.6861030
  19.6538380  31.4092640  29.0025280  20.6571320  31.8311710  32.1953620
  21.2054310  31.6499760  31.4319730  20.7226630  31.0405820  32.7309930
  21.4303080  48.4217360  30.2053820  20.8363400  48.2902060  30.9443860
  21.4226920  47.5855500  29.7395920  21.0615310  45.7875740  29.1561860
  20.3349370  45.1681030  29.0887810  21.1224460  46.1816350  28.2859940
  19.3445310  49.1050130  22.3658620  19.1767350  48.4720810  23.0640510
  18.4779820  49.3109530  22.0152810  19.9673330  32.9366910  19.8690480
  20.7252690  33.0495790  19.2954510  19.5050500  33.7736110  19.8233910
  26.5087140  35.0506180  22.8592790  25.6961650  34.6763070  22.5188670
  27.0128780  34.2951260  23.1613980  34.1546720  32.1170190  19.3716140
  34.3497350  33.0153640  19.6383570  33.3676590  31.8857270  19.8649090
  20.9508010  47.7983360  19.8108760  20.4255630  48.1791390  19.1070720
  20.8752590  48.4234130  20.5318470  22.3398480  33.4630960  18.4092450
  22.8691240  32.6760760  18.2800400  22.9726800  34.1422150  18.6427980
  24.5336320  33.2006100  21.4637840  23.9039060  32.4993410  21.6307970
  23.9941460  33.9610230  21.2471000  35.7073330  49.3570900  21.1322700
  35.8825520  48.6708640  20.4883620  35.0094900  49.8817950  20.7399370
  23.5500980  49.7465740  18.6858010  24.2819800  49.4625020  18.1381900
  23.8094650  49.5079020  19.5757390  22.7115770  45.8630470  18.6904340
  22.0824650  46.3315570  19.2390170  22.8263600  45.0179690  19.1250530
  30.1665490  39.9136130   4.8405540  30.0859540  38.9990740   4.5697250
  29.7529910  40.4103200   4.1345250  28.2983530  41.6915150   6.7214810
  27.5225630  41.2115590   7.0113380  28.9496460  41.0120800   6.5470970
  22.3149360  42.0034960   7.5990570  21.4834240  41.7483670   7.9987080
  22.9230340  42.0745730   8.3348490  32.3190960  46.0975340   5.5013940
  31.8572490  45.3262580   5.8301110  33.1316510  46.1241410   6.0066390
  22.2950620  46.0375050   7.7948590  22.5978660  45.1472790   7.6158810
  23.0394210  46.5945270   7.5670840  18.6874320  39.5642500   7.2672660
  19.2590430  38.7964700   7.2676300  18.6875860  39.8631260   6.3579270
  28.5454270  48.3833350   5.1217930  27.9265710  48.8390850   4.5512370
  29.4006050  48.5384810   4.7207630  27.7392520  44.3672340   6.7284970
  27.6700800  43.4262280   6.5674100  28.5012380  44.4573750   7.3007540
  19.9299190  34.9726860   9.0541590  19.7502030  34.0752610   9.3344350
  19.5279270  35.5198730   9.7288540  28.7697690  37.1742720   6.9553900
  29.1462510  36.3014600   6.8427570  28.6717200  37.5101420   6.0644340
  22.9002700  35.5468350   2.4171340  23.0069450  36.4472080   2.7240100
  21.9895060  35.4986320   2.1265990  32.5521810  34.6693160   3.8882240
  33.3731430  34.1789730   3.9307720  32.5855890  35.2590820   4.6414080
  20.5485860  37.4687360   7.6623930  21.2295970  37.7325730   8.2811330
  20.2333910  36.6288230   7.9961940  24.7410430  38.5154720   6.7496520
  25.2488650  39.0135690   7.3901540  25.2723670  37.7389920   6.5735880
  36.8421360  36.6859910  10.4525870  36.1373530  37.0741620   9.9340980
  37.1079280  37.3810200  11.0546800  23.0246530  33.1553280  11.0159940
  23.0264970  33.6725670  10.2105840  22.1950840  32.6783460  10.9929870
  29.4117620  43.2672590   2.5149840  28.7934890  43.7322040   1.9512560
  29.9240870  43.9600070   2.9319350  24.2749380  42.7948460   9.1933440
  23.9418760  43.4217380   9.8354510  24.4516060  43.3210340   8.4135110
  32.7883290  36.6093540   6.6609780  32.0838860  36.8978430   7.2412890
  33.1495450  37.4193650   6.3009340  22.7061860  34.8663240   9.0230390
  23.0478670  35.7105290   8.7284260  21.7677670  35.0146980   9.1395730
  23.4868480  44.7629260  11.0082620  24.1042480  45.4380340  10.7267070
  22.6261600  45.1717240  10.9170120  34.4046070  46.2268670   8.9237260
  33.7209590  46.8967780   8.9153930  34.9440360  46.4249320   8.1582120
  35.8570210  36.0548330   7.0518990  34.9095120  36.0887310   7.1834420
  36.1820200  36.8687280   7.4368350  26.3889750  32.3545510   5.3474980
  26.6964730  31.7992400   4.6310480  25.4590450  32.4889970   5.1647970
  31.9404810  48.0712800   7.6382440  31.9531970  47.6675090   6.7704700
  31.3880030  48.8460090   7.5343870  33.2350230  44.7929020   2.7272610
  33.1246560  43.8503350   2.8522030  33.2318480  45.1544660   3.6135370
  31.3390250  42.9742640   8.9665050  31.7559040  42.7602750   8.1318510
  32.0630070  43.2315430   9.5373670  28.7770510  40.4194340   2.0835100
  27.8499790  40.3531720   2.3123570  28.9295330  41.3574470   1.9690340
  35.2852350  41.3729860   9.0581290  34.4570980  41.4422950   8.5831420
  35.8802830  41.9584170   8.5897120  32.8067800  41.9814640   2.5870350
  32.1880220  41.6434190   1.9396650  32.7892250  41.3374400   3.2949540
  32.2494360  38.1599180  10.0036160  31.8365540  38.9852890  10.2576150
  31.5170310  37.5744220   9.8112520  24.3827150  40.9459080   4.8654830
  23.9784150  40.2336330   4.3700730  24.4690270  40.6012320   5.7542870
  24.8508850  44.6326640   7.0294040  24.5537140  44.0272110   6.3501820
  25.8008670  44.6703950   6.9183400  23.0955770  37.7202290   8.6453870
  23.6470360  37.8297630   7.8707120  23.6099280  38.0939890   9.3609100
  32.9394460  48.2058510  10.6917140  32.4625020  49.0130700  10.4989750
  32.2556250  47.5536840  10.8443350  23.9427280  44.3708330  13.6801840
  23.0455810  44.5948300  13.9275240  23.9680150  44.4943270  12.7313240
  22.7698500  41.2421650  12.2559210  22.6306270  42.1144450  12.6246610
  21.8879860  40.8994460  12.1107150  29.0927880  46.1597520   3.5624340
  29.5323790  46.9021850   3.1479730  29.0314770  46.4024090   4.4863300
  24.5678850  47.1843350  14.4644360  24.5394280  47.5886300  13.5972790
  24.4043820  46.2553710  14.3015960  21.0831780  39.8404060   2.3661480
  20.9629380  40.5666150   1.7542750  20.7732670  39.0706970   1.8889390
  36.5193670  47.9670450  15.7608530  36.9953390  48.4453340  16.4397610
  37.1400830  47.8987940  15.0354030  18.7217150  43.0119200   8.1730120
  18.7997570  43.1467970   7.2285840  19.3358830  42.3035090   8.3658240
  19.9664780  44.7119390   4.5836300  19.5592860  44.8533980   3.7289900
  20.8577790  44.4279550   4.3807510  35.9226920  45.1583300  12.9208540
  36.0489980  44.9195180  12.0025720  35.9648300  44.3267840  13.3930620
  29.7843660  48.8611300  11.4903350  30.2988330  48.7719310  12.2925780
  28.9412740  49.2071000  11.7831260  24.2386440  48.9265170   2.6958970
  24.0628920  48.0100710   2.4826770  23.3842180  49.2852460   2.9356770
  31.0274120  48.2816910   3.5533840  31.4831070  47.5006290   3.8672460
  31.3666640  48.9923730   4.0975020  35.7750930  37.2115760  13.8858280
  35.1595200  37.7195430  13.3573740  35.4547350  36.3114090  13.8284220
  18.7776670  44.0533370  10.7124580  18.9407710  43.5838730   9.8943950
  19.2429120  43.5456930  11.3773420  23.5495440  33.1839130   5.7485150
  23.1063590  33.9648670   5.4169670  24.1080430  33.5069020   6.4556090
  27.8365250  36.0507650  11.3520470  27.3744620  36.2590670  12.1640410
  27.4343360  35.2367000  11.0491140  32.8369760  37.2716600  12.4817130
  31.9863350  36.9722350  12.8026200  32.6771550  37.5158610  11.5700950
  29.9319470  38.7718350  14.5815920  30.2572880  37.9382100  14.2418150
  30.7199800  39.2946870  14.7294250  25.5871340  33.7286460   7.6074750
  25.8843670  34.6349290   7.5266770  26.1356900  33.2405240   6.9934320
  23.3409660  38.3072700   3.4766400  23.1150580  38.0909870   4.3813020
  22.5602190  38.7401160   3.1312370  25.7808870  39.2058280  14.1426670
  25.6852470  38.2653010  13.9927070  26.6240850  39.4273350  13.7474740
  29.1772290  36.9499610   4.1060330  29.5701860  37.2671810   3.2929020
  29.5389140  36.0711490   4.2204850  20.9119410  35.6171950  12.2960450
  20.5182800  36.4647160  12.5033230  20.2237810  34.9798320  12.4869090
  27.4864460  35.7006920  15.3657190  26.7962780  35.5079120  16.0003280
  28.2296760  35.9841560  15.8981490  18.2136460  33.5400410   6.3290530
  17.9249510  34.1103270   7.0415510  18.9582220  33.0604860   6.6921760
  29.7627430  39.5405360   8.2011110  29.0308550  40.0492170   8.5501210
  29.3651770  38.7235340   7.8999890  26.2004820  36.2159560   6.6063600
  26.2040880  35.7749510   5.7568140  27.0955940  36.5376890   6.7135420
  22.0507200  36.0986050   5.5657810  21.7107250  36.5761280   6.3224860
  21.2884520  35.6451170   5.2058910  30.2253340  34.9939040   7.6134050
  30.2426080  35.4447690   8.4575900  29.9768920  34.0944680   7.8267490
  33.6524090  32.4071220  13.4520430  33.9769860  31.6760880  13.9778410
  33.6880600  32.0884860  12.5501420  20.3515650  43.4284800  12.8720390
  19.9670440  42.7878470  13.4703350  20.6627840  44.1320920  13.4415120
  26.5012790  40.2761340   8.3529010  26.8682920  39.8019910   9.0990350
  26.3117850  41.1502910   8.6937350  19.3653280  35.0205030   4.4822480
  19.0800200  34.6560700   5.3201100  19.3032140  34.2885490   3.8685620
  24.2912160  39.3169980  10.6713220  23.9869230  40.1961960  10.8963580
  25.2458620  39.3769770  10.7070660  33.5781930  42.5196330   7.0606460
  34.2981050  43.0151620   6.6702570  33.3763750  41.8414220   6.4160330
  28.9600730  42.5905390  12.9475460  28.8938040  41.6701060  12.6933050
  28.3305870  42.6880830  13.6620100  22.8631350  43.1911350   4.9058880
  23.3810020  42.3879610   4.8515770  22.4115370  43.1290490   5.7475710
  20.3475890  40.1572720  11.8184580  19.9890830  40.8226570  12.4057920
  20.0530450  39.3256270  12.1897200  23.5489010  40.6156960  14.7024130
  23.2489150  40.7614140  13.8051950  24.3200250  40.0562250  14.6097520
  28.8917460  45.4125960  12.6979260  28.9062000  44.4806920  12.4798170
  28.1842560  45.4985720  13.3369030  35.1028670  42.0533300  12.0447840
  34.3776860  42.6462080  11.8477230  35.6304130  42.0456840  11.2461210
  30.6328260  43.7793470   5.5431690  30.9852080  43.1821600   4.8833060
  29.7490590  43.4537700   5.7139940  26.7191540  44.5391160   2.9502100
  27.4062670  45.0860370   3.3309690  25.9323960  45.0831890   2.9851710
  26.0218750  41.5437190   2.5627460  26.4781530  42.3542440   2.7887650
  25.6706960  41.2260330   3.3945950  28.3251360  47.0543530   9.7919760
  28.9693580  47.2602910  10.4693180  28.6880800  46.2931930   9.3390610
  21.9230530  31.8874840   3.0349980  21.7945160  31.8792740   3.9834900
  21.0992550  32.2257930   2.6840990  29.5983440  45.0575880   8.5097210
  30.2405670  44.3569040   8.6229380  30.1232790  45.8374320   8.3294100
  31.3721060  45.8570780  11.7133270  31.7077300  46.4437470  12.3911190
  30.4521400  45.7263490  11.9431060  18.9224460  33.6465960  12.4956680
  18.2082980  33.8462880  13.1009290  19.3419500  32.8705530  12.8671480
  19.2097050  47.6346220  13.4823210  19.3188170  46.6940960  13.3418600
  18.5577610  47.9000970  12.8336940  27.2009640  45.9062110  14.8821330
  26.8806510  45.1871350  15.4267020  26.5268000  46.5817180  14.9557390
  30.4163240  36.1388270  10.2458130  30.7844060  35.3183480  10.5737700
  29.5561440  36.1990160  10.6613780  25.7509300  37.3731160   2.4703570
  25.0425450  37.8417500   2.9117180  26.0353780  36.7153170   3.1048760
  27.3765230  38.7927860  10.4696100  27.8750480  39.2673680  11.1347950
  27.5188180  37.8691380  10.6766130  29.7824730  34.0981820   3.9099360
  29.6592510  34.1167950   2.9608870  30.7309290  34.1460760   4.0297760
  26.8701520  49.3337120   3.1827340  27.1243020  49.2958510   2.2606710
  25.9214000  49.2070450   3.1755590  34.5832090  35.0095820  11.3124490
  34.0805690  35.7501220  11.6518300  35.3988750  35.3979820  10.9961280
  32.8754100  40.2529000   4.7585850  31.9344240  40.2679230   4.9333540
  33.1898170  39.4664960   5.2046150  34.8779680  47.4237850   6.4340110
  35.0027100  48.2469020   6.9063920  35.7445240  47.2128580   6.0864260
  22.3497210  49.5169060   6.1057240  23.0859690  48.9684520   6.3765810
  22.7338130  50.3825070   5.9663230  19.2342690  45.5842630   1.9798750
  18.3082470  45.8263770   1.9704160  19.6999120  46.4116890   1.8583500
  21.3555490  48.7015130  15.2942820  22.1568220  49.0227180  15.7078220
  20.8407310  48.3410710  16.0162730  30.1920120  44.8095000  15.2418230
  29.5858280  44.8326600  14.5013980  29.8874230  44.0778040  15.7785480
  31.6220490  48.5375290  13.8527640  32.5742240  48.4533310  13.8027880
  31.4748710  49.2017000  14.5261430  19.0753300  41.1888590  14.2378870
  19.5792320  40.6095870  14.8095100  18.3360720  41.4728820  14.7755240
  26.1291240  42.5959580  13.7714390  25.3636910  43.1644580  13.6869060
  26.3107200  42.3035790  12.8782620  33.2714590  44.3264910  14.3289410
  34.0124060  44.6640670  13.8256870  32.5087270  44.4956970  13.7759180
  21.1076380  39.3318180  15.1328940  21.1481720  39.0332050  16.0414170
  21.9621880  39.7325790  14.9736460  23.0482190  37.9110280  13.1003430
  22.5178650  37.4201230  12.4726770  23.7170260  38.3394480  12.5661360
  31.9460250  42.3779740  12.8644620  32.3601270  42.5324820  13.7135040
  31.0111250  42.5034960  13.0270400  32.4182420  39.7175900  14.8683770
  33.0003190  38.9628220  14.7804250  32.5944190  40.2483340  14.0915250
  23.5354490  34.8772650  13.1800720  23.4411360  34.2593400  12.4551590
  22.9551880  35.6038940  12.9530630  26.3015930  33.4345890  10.2128110
  25.8533230  33.4570150   9.3673660  25.6681130  33.0364910  10.8098410
  26.7075480  42.3300220  10.8340550  27.1263590  43.1732950  10.6616790
  25.7884110  42.4672260  10.6047330  29.0439380  40.0616400  12.2178390
  29.1635590  39.4657540  12.9573230  29.9033380  40.0986090  11.7979690
  31.3827280  40.6153590  10.7940900  30.8562500  41.1396210  10.1906040
  31.7258620  41.2480980  11.4250630  24.5582900  48.6353230  11.9498280
  24.0203990  49.3599290  11.6306980  24.8116860  48.1583570  11.1595620
  25.8108150  36.6037750  13.4754210  26.4007840  36.2953600  14.1632030
  24.9928390  36.1317500  13.6314110  30.6301580  36.2203560  13.7087230
  29.9417100  35.5585100  13.6437220  31.3507600  35.7741830  14.1535690
  27.4145110  49.8704440  12.2084930  27.3403810  50.7739580  12.5157300
  26.5123950  49.5516340  12.1807000  18.8172400  47.1979030   5.5118550
  19.1475410  46.3300090   5.2797190  19.2463400  47.4037550   6.3423510
  23.4134320  45.5288040   3.1720520  23.1129860  45.4053010   4.0724430
  23.3071810  44.6696630   2.7636250  19.3062610  48.0649620   8.2500180
  18.8693600  48.2450420   9.0824330  19.8740290  48.8224240   8.1081900
  34.9424790  47.5666620  12.5377490  34.3426780  47.6259180  11.7941410
  35.0718690  46.6271600  12.6674340  19.1387040  40.5769850   4.6089060
  18.4835880  40.3081490   3.9648760  19.9764990  40.4674330   4.1591040
  36.6442670  42.9082020   5.2223330  37.0151500  42.1249340   4.8159300
  37.2844600  43.5971120   5.0440630  33.6276430  44.2918600  10.6353650
  32.8136270  44.7215760  10.8979440  34.0350630  44.9037010  10.0222700
  35.5867210  40.2835280   2.5283350  35.2110810  39.5163210   2.0964640
  34.8570330  40.6657980   3.0158280  20.1762970  40.9622420   9.1492400
  20.5436010  40.8749820  10.0288420  19.6073790  40.1988970   9.0499260
  34.9766830  39.4306800  12.1622870  34.7452920  39.2019550  11.2620820
  35.2371380  40.3506350  12.1167760  19.7278970  37.8731510  13.0550820
  18.8335020  37.8398270  13.3944530  20.2676520  38.0718300  13.8202070
  33.4154900  34.6563230  14.9402570  34.2925080  34.6646630  15.3236570
  33.4275740  33.9194070  14.3294920  34.8618170  38.5092770   5.8290590
  35.3855650  38.0155420   5.1980760  35.4477590  38.6443130   6.5738160
  35.0407890  38.5932640   9.3510140  34.0910600  38.5596180   9.4655130
  35.2220900  39.5032750   9.1159910  34.3518140  37.7666120   1.7683000
  34.8477260  37.5336990   2.5531880  34.1534210  36.9277960   1.3520640
  20.2318680  32.1479840   7.4034040  20.8794870  31.5977220   6.9629200
  20.6520520  32.4022990   8.2249850  35.7805300  36.4027070   4.3020680
  35.6704580  36.2483110   5.2402950  36.5412890  35.8748010   4.0596090
  34.1271020  32.3421200  10.7603680  34.7643240  32.9555340  11.1262870
  34.2745910  32.3781860   9.8152910  33.6852480  49.0437200   4.1621920
  34.2811550  48.7221770   3.4856340  33.9430630  48.5709020   4.9535190
  19.9850680  32.3035510  10.1459360  19.6365500  32.7599330  10.9117540
  19.6538380  31.4092640  10.2281790  21.5915050  45.4755110  14.3112550
  21.5484680  45.1048020  15.1927010  21.7226060  46.4132680  14.4514370
  25.2921080  47.0314700   9.9122270  25.0512440  47.2989260   9.0252790
  26.2323720  47.2020430   9.9673130  27.4975500  33.4947390  13.6678780
  27.4364390  34.0869220  14.4174190  28.4375880  33.3873350  13.5229040
  30.1350060  33.1517450  13.3071070  30.7490470  33.4696740  12.6452150
  30.6799620  32.6666040  13.9266930  36.5525240  49.0509080  10.7132910
  36.0583520  49.4477950   9.9960040  35.9438530  48.4258290  11.1070190
  20.6571320  31.8311710  13.4210130  21.2054310  31.6499760  12.6576240
  20.7226630  31.0405820  13.9566440  21.4303080  48.4217360  11.4310330
  20.8363400  48.2902060  12.1700370  21.4226920  47.5855500  10.9652430
  30.8758100  31.7149590   9.6340360  30.0017940  32.0484700   9.4313290
  30.7668850  31.2422770  10.4592230  31.7830080  33.9220460  11.0182080
  31.4543440  33.1072220  10.6383810  32.7312380  33.8790270  10.8947770
  34.2364690  49.6932500   7.9919650  33.7767660  50.4448310   7.6177670
  33.6077150  48.9738970   7.9334450  21.0615310  45.7875740  10.3818370
  20.3349370  45.1681030  10.3144320  21.1224460  46.1816350   9.5116450
  24.6660410  48.0020740   7.1667780  25.1825430  47.3908100   6.6416040
  25.3157790  48.5049520   7.6578790  27.4055910  48.8929230   7.9936760
  27.6933720  48.6383530   7.1169770  27.9179130  48.3406590   8.5842330
  28.6232920  32.6319430   8.5733270  27.8404710  33.1064930   8.8530030
  28.3295850  31.7274260   8.4646450  33.1753990  33.3342530   6.6182360
  33.6162080  33.2787630   5.7703960  32.9061580  34.2500540   6.6892540
  35.0392560  32.9657770   4.6291180  34.9780960  32.0218990   4.4822200
  35.8184590  33.0737860   5.1744640  19.3445310  49.1050130   3.5915130
  19.1767350  48.4720810   4.2897020  18.4779820  49.3109530   3.2409320
  26.5087140  35.0506180   4.0849300  25.6961650  34.6763070   3.7445180
  27.0128780  34.2951260   4.3870490  31.0112120  31.7148630   5.3232370
  31.6141490  32.2868840   5.7980890  30.2705110  32.2788070   5.1006270
  24.5336320  33.2006100   2.6894350  23.9039060  32.4993410   2.8564480
  23.9941460  33.9610230   2.4727510  27.4728270  49.8145330  15.3604960
  28.3995580  49.5789600  15.4040920  27.4578700  50.6417330  14.8790990
  35.7073330  49.3570900   2.3579210  35.8825520  48.6708640   1.7140130
  35.0094900  49.8817950   1.9655880  24.6591880  32.4790080  15.1246840
  24.3776150  32.9823680  14.3607660  25.0411580  31.6811830  14.7588970
  31.2607340  31.8943660  15.7027310  31.1472790  32.2138270  16.5978830
  32.0777080  32.2956170  15.4064590  34.0405830  49.0415190  15.1846000
  34.8331150  48.5464420  14.9771960  34.3338980  49.7205330  15.7921610
  30.1665490  21.1392640  61.1636010  30.0859540  20.2247250  60.8927720
  29.7529910  21.6359710  60.4575720  28.2983530  22.9171660  63.0445280
  27.5225630  22.4372100  63.3343850  28.9496460  22.2377310  62.8701440
  22.3149360  23.2291470  63.9221040  21.4834240  22.9740180  64.3217550
  22.9230340  23.3002240  64.6578960  32.3190960  27.3231850  61.8244410
  31.8572490  26.5519090  62.1531580  33.1316510  27.3497920  62.3296860
  22.2950620  27.2631560  64.1179060  22.5978660  26.3729300  63.9389280
  23.0394210  27.8201780  63.8901310  20.7241310  18.1893360  57.7063430
  19.8358010  18.5309330  57.6043310  21.0082500  17.9893680  56.8144260
  18.6874320  20.7899010  63.5903130  19.2590430  20.0221210  63.5906770
  18.6875860  21.0887770  62.6809740  28.5454270  29.6089860  61.4448400
  27.9265710  30.0647360  60.8742840  29.4006050  29.7641320  61.0438100
  27.7392520  25.5928850  63.0515440  27.6700800  24.6518790  62.8904570
  28.5012380  25.6830260  63.6238010  19.9299190  16.1983370  65.3772060
  19.7502030  15.3009120  65.6574820  19.5279270  16.7455240  66.0519010
  28.7697690  18.3999230  63.2784370  29.1462510  17.5271110  63.1658040
  28.6717200  18.7357930  62.3874810  22.9002700  16.7724860  58.7401810
  23.0069450  17.6728590  59.0470570  21.9895060  16.7242830  58.4496460
  32.5521810  15.8949670  60.2112710  33.3731430  15.4046240  60.2538190
  32.5855890  16.4847330  60.9644550  20.5485860  18.6943870  63.9854400
  21.2295970  18.9582240  64.6041800  20.2333910  17.8544740  64.3192410
  24.7410430  19.7411230  63.0726990  25.2488650  20.2392200  63.7132010
  25.2723670  18.9646430  62.8966350  36.8421360  17.9116420  66.7756340
  36.1373530  18.2998130  66.2571450  37.1079280  18.6066710  67.3777270
  23.0246530  14.3809790  67.3390410  23.0264970  14.8982180  66.5336310
  22.1950840  13.9039970  67.3160340  29.4117620  24.4929100  58.8380310
  28.7934890  24.9578550  58.2743030  29.9240870  25.1856580  59.2549820
  24.2749380  24.0204970  65.5163910  23.9418760  24.6473890  66.1584980
  24.4516060  24.5466850  64.7365580  32.7883290  17.8350050  62.9840250
  32.0838860  18.1234940  63.5643360  33.1495450  18.6450160  62.6239810
  22.7061860  16.0919750  65.3460860  23.0478670  16.9361800  65.0514730
  21.7677670  16.2403490  65.4626200  23.4868480  25.9885770  67.3313090
  24.1042480  26.6636850  67.0497540  22.6261600  26.3973750  67.2400590
  18.7800820  25.1785630  56.2119940  18.4028800  25.6672730  55.4804840
  19.0373890  25.8510910  56.8426470  34.4046070  27.4525180  65.2467730
  33.7209590  28.1224290  65.2384400  34.9440360  27.6505830  64.4812590
  35.8570210  17.2804840  63.3749460  34.9095120  17.3143820  63.5064890
  36.1820200  18.0943790  63.7598820  26.3889750  13.5802020  61.6705450
  26.6964730  13.0248910  60.9540950  25.4590450  13.7146480  61.4878440
  31.9404810  29.2969310  63.9612910  31.9531970  28.8931600  63.0935170
  31.3880030  30.0716600  63.8574340  33.2350230  26.0185530  59.0503080
  33.1246560  25.0759860  59.1752500  33.2318480  26.3801170  59.9365840
  31.3390250  24.1999150  65.2895520  31.7559040  23.9859260  64.4548980
  32.0630070  24.4571940  65.8604140  28.7770510  21.6450850  58.4065570
  27.8499790  21.5788230  58.6354040  28.9295330  22.5830980  58.2920810
  28.7639590  17.9167850  55.4032730  27.8243260  18.0781810  55.4885190
  29.0822850  18.6353530  54.8568720  35.2852350  22.5986370  65.3811760
  34.4570980  22.6679460  64.9061890  35.8802830  23.1840680  64.9127590
  32.8067800  23.2071150  58.9100820  32.1880220  22.8690700  58.2627120
  32.7892250  22.5630910  59.6180010  32.2494360  19.3855690  66.3266630
  31.8365540  20.2109400  66.5806620  31.5170310  18.8000730  66.1342990
  24.3827150  22.1715590  61.1885300  23.9784150  21.4592840  60.6931200
  24.4690270  21.8268830  62.0773340  24.8508850  25.8583150  63.3524510
  24.5537140  25.2528620  62.6732290  25.8008670  25.8960460  63.2413870
  23.0955770  18.9458800  64.9684340  23.6470360  19.0554140  64.1937590
  23.6099280  19.3196400  65.6839570  32.9394460  29.4315020  67.0147610
  32.4625020  30.2387210  66.8220220  32.2556250  28.7793350  67.1673820
  30.9832500  22.4457960  55.9173570  31.4225780  21.6080390  55.7711390
  31.6960920  23.0787360  56.0037710  29.0927880  27.3854030  59.8854810
  29.5323790  28.1278360  59.4710200  29.0314770  27.6280600  60.8093770
  34.5649640  13.7000770  54.2314610  34.2522300  13.7927600  55.1313680
  35.3262110  14.2781800  54.1812040  21.0831780  21.0660570  58.6891950
  20.9629380  21.7922660  58.0773220  20.7732670  20.2963480  58.2119860
  18.7217150  24.2375710  64.4960590  18.7997570  24.3724480  63.5516310
  19.3358830  23.5291600  64.6888710  19.9664780  25.9375900  60.9066770
  19.5592860  26.0790490  60.0520370  20.8577790  25.6536060  60.7037980
  31.7598060  30.3723150  57.2417820  31.5999200  30.0826090  58.1399650
  31.5944770  29.5963280  56.7063050  24.2386440  30.1521680  59.0189440
  24.0628920  29.2357220  58.8057240  23.3842180  30.5108970  59.2587240
  31.4624190  27.8810710  55.8015820  30.7689350  27.8788000  55.1418100
  32.2047050  27.4570030  55.3709990  31.0274120  29.5073420  59.8764310
  31.4831070  28.7262800  60.1902930  31.3666640  30.2180240  60.4205490
  18.7776670  25.2789880  67.0355050  18.9407710  24.8095240  66.2174420
  19.2429120  24.7713440  67.7003890  23.5495440  14.4095640  62.0715620
  23.1063590  15.1905180  61.7400140  24.1080430  14.7325530  62.7786560
  26.6654260  14.0306340  56.9521450  26.0408440  14.0266210  57.6774760
  26.5784380  13.1637300  56.5557420  25.5871340  14.9542970  63.9305220
  25.8843670  15.8605800  63.8497240  26.1356900  14.4661750  63.3164790
  23.3409660  19.5329210  59.7996870  23.1150580  19.3166380  60.7043490
  22.5602190  19.9657670  59.4542840  30.5707420  19.5392580  58.3987520
  29.9716310  20.2628380  58.2151140  31.1187030  19.4769360  57.6163970
  29.1772290  18.1756120  60.4290800  29.5701860  18.4928320  59.6159490
  29.5389140  17.2968000  60.5435320  18.2136460  14.7656920  62.6521000
  17.9249510  15.3359780  63.3645980  18.9582220  14.2861370  63.0152230
  18.4006690  18.7077040  53.8623720  18.3181360  19.6507800  54.0038710
  18.0489750  18.5651950  52.9836070  29.7627430  20.7661870  64.5241580
  29.0308550  21.2748680  64.8731680  29.3651770  19.9491850  64.2230360
  26.2004820  17.4416070  62.9294070  26.2040880  17.0006020  62.0798610
  27.0955940  17.7633400  63.0365890  22.0507200  17.3242560  61.8888280
  21.7107250  17.8017790  62.6455330  21.2884520  16.8707680  61.5289380
  26.2624970  18.4428150  55.9200830  26.3837790  18.4014630  56.8686650
  25.8773480  19.3052300  55.7647560  30.2253340  16.2195550  63.9364520
  30.2426080  16.6704200  64.7806370  29.9768920  15.3201190  64.1497960
  25.2746470  20.7529290  55.3184130  24.7063370  20.3047540  54.6920040
  25.9835470  21.1122070  54.7849280  26.5012790  21.5017850  64.6759480
  26.8682920  21.0276420  65.4220820  26.3117850  22.3759420  65.0167820
  19.3653280  16.2461540  60.8052950  19.0800200  15.8817210  61.6431570
  19.3032140  15.5142000  60.1916090  24.2912160  20.5426490  66.9943690
  23.9869230  21.4218470  67.2194050  25.2458620  20.6026280  67.0301130
  22.8193950  24.7487480  57.5910540  22.0456210  24.2085100  57.4309260
  23.5488580  24.2294090  57.2528300  33.5781930  23.7452840  63.3836930
  34.2981050  24.2408130  62.9933040  33.3763750  23.0670730  62.7390800
  29.0391870  15.1390800  57.5266320  28.2256480  14.6403970  57.4511630
  28.8453820  15.9789050  57.1102670  31.7540260  19.5110450  55.8228480
  32.6419880  19.8227680  55.6479820  31.7245350  18.6382700  55.4309060
  22.8631350  24.4167860  61.2289350  23.3810020  23.6136120  61.1746240
  22.4115370  24.3547000  62.0706180  27.7500850  25.6834140  56.5016650
  28.0916550  26.4276370  56.0059970  26.9213560  25.9965260  56.8641480
  34.0254530  20.8222290  55.2908340  33.9418250  21.2536510  54.4404780
  34.7448720  21.2820640  55.7235160  35.0541780  27.6764550  58.0190470
  34.4117940  27.0220170  58.2934190  34.6672440  28.0819640  57.2431140
  30.6328260  25.0049980  61.8662160  30.9852080  24.4078110  61.2063530
  29.7490590  24.6794210  62.0370410  26.7191540  25.7647670  59.2732570
  27.4062670  26.3116880  59.6540160  25.9323960  26.3088400  59.3082180
  18.8583940  21.3820490  54.7649650  19.7278790  21.6645290  55.0485570
  18.3674260  22.1956360  54.6498460  26.0218750  22.7693700  58.8857930
  26.4781530  23.5798950  59.1118120  25.6706960  22.4516840  59.7176420
  28.3251360  28.2800040  66.1150230  28.9693580  28.4859420  66.7923650
  28.6880800  27.5188440  65.6621080  21.9230530  13.1131350  59.3580450
  21.7945160  13.1049250  60.3065370  21.0992550  13.4514440  59.0071460
  29.5983440  26.2832390  64.8327680  30.2405670  25.5825550  64.9459850
  30.1232790  27.0630830  64.6524570  33.4439160  26.5681010  54.5566820
  33.2176740  25.8511450  55.1491460  33.0535360  26.3193450  53.7188570
  19.2255190  30.5947870  55.3311280  19.5852830  31.1937210  54.6768550
  19.0847530  31.1407760  56.1046310  33.0255410  24.4852950  56.2180980
  32.7377110  24.9465640  57.0058860  33.8207580  24.0250720  56.4865200
  25.2423810  27.9779070  56.1484950  25.2333910  28.7108760  55.5329460
  24.3222170  27.7310650  56.2411910  20.8430450  23.1993960  56.8931710
  20.2358400  23.9392860  56.9027010  21.3179800  23.2893320  56.0669910
  30.4163240  17.3644780  66.5688600  30.7844060  16.5439990  66.8968170
  29.5561440  17.4246670  66.9844250  33.7825270  16.3201720  57.3776160
  33.1538430  16.4247390  56.6634390  33.2877190  16.5398500  58.1670040
  28.2283410  28.0407310  54.8110140  28.3295390  27.8371300  53.8812120
  27.3285150  27.7865590  55.0157920  25.7509300  18.5987670  58.7934040
  25.0425450  19.0674010  59.2347650  26.0353780  17.9409680  59.4279230
  27.3765230  20.0184370  66.7926570  27.8750480  20.4930190  67.4578420
  27.5188180  19.0947890  66.9996600  29.7824730  15.3238330  60.2329830
  29.6592510  15.3424460  59.2839340  30.7309290  15.3717270  60.3528230
  26.8701520  30.5593630  59.5057810  27.1243020  30.5215020  58.5837180
  25.9214000  30.4326960  59.4986060  23.9544320  16.9072750  56.1684750
  24.8034850  17.3442900  56.1024940  23.5875590  17.2193010  56.9956810
  32.8754100  21.4785510  61.0816320  31.9344240  21.4935740  61.2564010
  33.1898170  20.6921470  61.5276620  22.8535740  23.1605110  54.6420280
  23.6199010  23.0486470  55.2045710  22.9310430  22.4643080  53.9897050
  21.5482500  20.5930180  55.3253170  21.6286090  19.6457690  55.4370570
  22.4402250  20.9237060  55.4313830  34.8779680  28.6494360  62.7570580
  35.0027100  29.4725530  63.2294390  35.7445240  28.4385090  62.4094730
  22.3497210  30.7425570  62.4287710  23.0859690  30.1941030  62.6996280
  22.7338130  31.6081580  62.2893700  19.2342690  26.8099140  58.3029220
  18.3082470  27.0520280  58.2934630  19.6999120  27.6373400  58.1813970
  25.4599520  29.9155880  54.2513280  26.2528130  30.2044710  53.7995070
  24.9403870  29.4848050  53.5725760  34.5129690  29.1426010  55.6750020
  34.2271200  28.7291150  54.8604200  34.3149240  30.0713720  55.5550540
  25.9776920  25.1359290  54.1155630  25.8727560  24.5211640  54.8417010
  25.8101140  24.6125180  53.3318640  29.2179650  24.1979320  54.7197620
  28.6689750  24.6448620  55.3640360  29.8398910  23.6928570  55.2435290
  24.8854770  23.1570240  56.6162920  25.3071190  22.9910110  57.4594310
  25.0105610  22.3470470  56.1218060  27.3982410  22.1807850  53.8640020
  27.9188070  21.4656870  53.4981170  28.0450810  22.8193720  54.1640530
  26.3015930  14.6602400  66.5358580  25.8533230  14.6826660  65.6904130
  25.6681130  14.2621420  67.1328880  26.7075480  23.5556730  67.1571020
  27.1263590  24.3989460  66.9847260  25.7884110  23.6928770  66.9277800
  31.3827280  21.8410100  67.1171370  30.8562500  22.3652720  66.5136510
  31.7258620  22.4737490  67.7481100  23.7813670  19.2303470  53.5621080
  23.5802730  18.3670830  53.9234420  23.6105720  19.1436830  52.6242680
  31.2601980  14.0411700  56.0907960  31.5404270  13.1979600  56.4467380
  30.4867710  14.2734810  56.6046710  22.5796470  16.3304090  53.5498960
  22.8822370  16.3371520  52.6418110  23.3191060  15.9801950  54.0466620
  25.7981400  15.2738710  54.5355160  25.4503400  14.5962700  53.9557610
  25.9994170  14.8128220  55.3498550  27.9630440  30.2619460  56.1541760
  28.8581230  30.6004430  56.1760520  27.9948070  29.5398870  55.5266040
  21.6026600  25.6346510  54.3828760  22.0401470  26.1776180  55.0386340
  22.0874330  24.8093460  54.3925100  18.8172400  28.4235540  61.8349020
  19.1475410  27.5556600  61.6027660  19.2463400  28.6294060  62.6653980
  23.4134320  26.7544550  59.4950990  23.1129860  26.6309520  60.3954900
  23.3071810  25.8953140  59.0866720  19.3062610  29.2906130  64.5730650
  18.8693600  29.4706930  65.4054800  19.8740290  30.0480750  64.4312370
  36.1826240  26.5340950  54.1977670  35.3519200  26.6017600  54.6684900
  36.3598070  27.4245070  53.8944530  35.6382700  23.2788430  56.7011870
  36.4001610  23.8485080  56.8071560  35.6537070  22.7115630  57.4720180
  19.1387040  21.8026360  60.9319530  18.4835880  21.5338000  60.2879230
  19.9764990  21.6930840  60.4821510  36.6442670  24.1338530  61.5453800
  37.0151500  23.3505850  61.1389770  37.2844600  24.8227630  61.3671100
  33.6276430  25.5175110  66.9584120  32.8136270  25.9472270  67.2209910
  34.0350630  26.1293520  66.3453170  35.6901870  23.5722800  53.8584390
  35.9650710  24.4801680  53.7303610  35.5012610  23.5085330  54.7946380
  32.0877480  16.5967650  55.1538020  32.5062360  16.4098630  54.3134680
  31.7813540  15.7446700  55.4640950  35.5867210  21.5091790  58.8513820
  35.2110810  20.7419720  58.4195110  34.8570330  21.8914490  59.3388750
  20.1762970  22.1878930  65.4722870  20.5436010  22.1006330  66.3518890
  19.6073790  21.4245480  65.3729730  18.3525120  19.0125290  56.8744860
  17.4489200  19.2755490  56.6996520  18.8365740  19.2836460  56.0944820
  34.8618170  19.7349280  62.1521060  35.3855650  19.2411930  61.5211230
  35.4477590  19.8699640  62.8968630  35.0407890  19.8189150  65.6740610
  34.0910600  19.7852690  65.7885600  35.2220900  20.7289260  65.4390380
  20.8952330  18.0690830  54.7839240  21.6044030  17.6474050  54.2986520
  20.1792270  18.1366060  54.1522590  20.5426490  14.1230160  53.8241890
  21.2654620  14.6639100  54.1423110  20.8151010  13.8493580  52.9483430
  34.3518140  18.9922630  58.0913470  34.8477260  18.7593500  58.8762350
  34.1534210  18.1534470  57.6751110  20.2318680  13.3736350  63.7264510
  20.8794870  12.8233730  63.2859670  20.6520520  13.6279500  64.5480320
  35.7805300  17.6283580  60.6251150  35.6704580  17.4739620  61.5633420
  36.5412890  17.1004520  60.3826560  34.1271020  13.5677710  67.0834150
  34.7643240  14.1811850  67.4493340  34.2745910  13.6038370  66.1383380
  36.6695570  15.4591500  53.8657290  37.5944880  15.3272680  53.6575580
  36.6471360  15.5384320  54.8193740  36.7434060  16.2302160  56.4914000
  35.9485560  16.1647280  57.0206910  36.9477340  17.1652800  56.4799350
  33.6852480  30.2693710  60.4852390  34.2811550  29.9478280  59.8086810
  33.9430630  29.7965530  61.2765660  19.9850680  13.5292020  66.4689830
  19.6365500  13.9855840  67.2348010  19.6538380  12.6349150  66.5512260
  25.2921080  28.2571210  66.2352740  25.0512440  28.5245770  65.3483260
  26.2323720  28.4276940  66.2903600  36.5525240  30.2765590  67.0363380
  36.0583520  30.6734460  66.3190510  35.9438530  29.6514800  67.4300660
  30.8758100  12.9406100  65.9570830  30.0017940  13.2741210  65.7543760
  30.7668850  12.4679280  66.7822700  31.7830080  15.1476970  67.3412550
  31.4543440  14.3328730  66.9614280  32.7312380  15.1046780  67.2178240
  34.2364690  30.9189010  64.3150120  33.7767660  31.6704820  63.9408140
  33.6077150  30.1995480  64.2564920  21.0615310  27.0132250  66.7048840
  20.3349370  26.3937540  66.6374790  21.1224460  27.4072860  65.8346920
  24.6660410  29.2277250  63.4898250  25.1825430  28.6164610  62.9646510
  25.3157790  29.7306030  63.9809260  27.4055910  30.1185740  64.3167230
  27.6933720  29.8640040  63.4400240  27.9179130  29.5663100  64.9072800
  28.6232920  13.8575940  64.8963740  27.8404710  14.3321440  65.1760500
  28.3295850  12.9530770  64.7876920  33.1753990  14.5599040  62.9412830
  33.6162080  14.5044140  62.0934430  32.9061580  15.4757050  63.0123010
  35.0392560  14.1914280  60.9521650  34.9780960  13.2475500  60.8052670
  35.8184590  14.2994370  61.4975110  19.3445310  30.3306640  59.9145600
  19.1767350  29.6977320  60.6127490  18.4779820  30.5366040  59.5639790
  19.9673330  14.1623420  57.4177460  20.7252690  14.2752300  56.8441490
  19.5050500  14.9992620  57.3720890  26.5087140  16.2762690  60.4079770
  25.6961650  15.9019580  60.0675650  27.0128780  15.5207770  60.7100960
  31.0112120  12.9405140  61.6462840  31.6141490  13.5125350  62.1211360
  30.2705110  13.5044580  61.4236740  34.1546720  13.3426700  56.9203120
  34.3497350  14.2410150  57.1870550  33.3676590  13.1113780  57.4136070
  20.9508010  29.0239870  57.3595740  20.4255630  29.4047900  56.6557700
  20.8752590  29.6490640  58.0805450  22.3398480  14.6887470  55.9579430
  22.8691240  13.9017270  55.8287380  22.9726800  15.3678660  56.1914960
  24.5336320  14.4262610  59.0124820  23.9039060  13.7249920  59.1794950
  23.9941460  15.1866740  58.7957980  35.7073330  30.5827410  58.6809680
  35.8825520  29.8965150  58.0370600  35.0094900  31.1074460  58.2886350
  23.5500980  30.9722250  56.2344990  24.2819800  30.6881530  55.6868880
  23.8094650  30.7335530  57.1244370  22.7115770  27.0886980  56.2391320
  22.0824650  27.5572080  56.7877150  22.8263600  26.2436200  56.6737510
  30.1665490  21.1392640  42.3892520  30.0859540  20.2247250  42.1184230
  29.7529910  21.6359710  41.6832230  22.3149360  23.2291470  45.1477550
  21.4834240  22.9740180  45.5474060  22.9230340  23.3002240  45.8835470
  22.2950620  27.2631560  45.3435570  22.5978660  26.3729300  45.1645790
  23.0394210  27.8201780  45.1157820  20.7241310  18.1893360  38.9319940
  19.8358010  18.5309330  38.8299820  21.0082500  17.9893680  38.0400770
  18.6874320  20.7899010  44.8159640  19.2590430  20.0221210  44.8163280
  18.6875860  21.0887770  43.9066250  19.9299190  16.1983370  46.6028570
  19.7502030  15.3009120  46.8831330  19.5279270  16.7455240  47.2775520
  28.7697690  18.3999230  44.5040880  29.1462510  17.5271110  44.3914550
  28.6717200  18.7357930  43.6131320  22.9002700  16.7724860  39.9658320
  23.0069450  17.6728590  40.2727080  21.9895060  16.7242830  39.6752970
  32.5521810  15.8949670  41.4369220  33.3731430  15.4046240  41.4794700
  32.5855890  16.4847330  42.1901060  20.5485860  18.6943870  45.2110910
  21.2295970  18.9582240  45.8298310  20.2333910  17.8544740  45.5448920
  24.7410430  19.7411230  44.2983500  25.2488650  20.2392200  44.9388520
  25.2723670  18.9646430  44.1222860  36.8421360  17.9116420  48.0012850
  36.1373530  18.2998130  47.4827960  37.1079280  18.6066710  48.6033780
  23.0246530  14.3809790  48.5646920  23.0264970  14.8982180  47.7592820
  22.1950840  13.9039970  48.5416850  24.2749380  24.0204970  46.7420420
  23.9418760  24.6473890  47.3841490  24.4516060  24.5466850  45.9622090
  32.7883290  17.8350050  44.2096760  32.0838860  18.1234940  44.7899870
  33.1495450  18.6450160  43.8496320  22.7061860  16.0919750  46.5717370
  23.0478670  16.9361800  46.2771240  21.7677670  16.2403490  46.6882710
  23.4868480  25.9885770  48.5569600  24.1042480  26.6636850  48.2754050
  22.6261600  26.3973750  48.4657100  18.7800820  25.1785630  37.4376450
  18.4028800  25.6672730  36.7061350  19.0373890  25.8510910  38.0682980
  35.8570210  17.2804840  44.6005970  34.9095120  17.3143820  44.7321400
  36.1820200  18.0943790  44.9855330  26.3889750  13.5802020  42.8961960
  26.6964730  13.0248910  42.1797460  25.4590450  13.7146480  42.7134950
  28.7639590  17.9167850  36.6289240  27.8243260  18.0781810  36.7141700
  29.0822850  18.6353530  36.0825230  35.2852350  22.5986370  46.6068270
  34.4570980  22.6679460  46.1318400  35.8802830  23.1840680  46.1384100
  32.2494360  19.3855690  47.5523140  31.8365540  20.2109400  47.8063130
  31.5170310  18.8000730  47.3599500  24.3827150  22.1715590  42.4141810
  23.9784150  21.4592840  41.9187710  24.4690270  21.8268830  43.3029850
  24.8508850  25.8583150  44.5781020  24.5537140  25.2528620  43.8988800
  25.8008670  25.8960460  44.4670380  23.0955770  18.9458800  46.1940850
  23.6470360  19.0554140  45.4194100  23.6099280  19.3196400  46.9096080
  32.9394460  29.4315020  48.2404120  32.4625020  30.2387210  48.0476730
  32.2556250  28.7793350  48.3930330  23.9427280  25.5964840  51.2288820
  23.0455810  25.8204810  51.4762220  23.9680150  25.7199780  50.2800220
  22.7698500  22.4678160  49.8046190  22.6306270  23.3400960  50.1733590
  21.8879860  22.1250970  49.6594130  24.5678850  28.4099860  52.0131340
  24.5394280  28.8142810  51.1459770  24.4043820  27.4810220  51.8502940
  34.5649640  13.7000770  35.4571120  34.2522300  13.7927600  36.3570190
  35.3262110  14.2781800  35.4068550  21.0831780  21.0660570  39.9148460
  20.9629380  21.7922660  39.3029730  20.7732670  20.2963480  39.4376370
  36.5193670  29.1926960  53.3095510  36.9953390  29.6709850  53.9884590
  37.1400830  29.1244450  52.5841010  18.7217150  24.2375710  45.7217100
  18.7997570  24.3724480  44.7772820  19.3358830  23.5291600  45.9145220
  19.9664780  25.9375900  42.1323280  19.5592860  26.0790490  41.2776880
  20.8577790  25.6536060  41.9294490  35.9226920  26.3839810  50.4695520
  36.0489980  26.1451690  49.5512700  35.9648300  25.5524350  50.9417600
  29.7843660  30.0867810  49.0390330  30.2988330  29.9975820  49.8412760
  28.9412740  30.4327510  49.3318240  24.2386440  30.1521680  40.2445950
  24.0628920  29.2357220  40.0313750  23.3842180  30.5108970  40.4843750
  35.7750930  18.4372270  51.4345260  35.1595200  18.9451940  50.9060720
  35.4547350  17.5370600  51.3771200  18.7776670  25.2789880  48.2611560
  18.9407710  24.8095240  47.4430930  19.2429120  24.7713440  48.9260400
  23.5495440  14.4095640  43.2972130  23.1063590  15.1905180  42.9656650
  24.1080430  14.7325530  44.0043070  27.8365250  17.2764160  48.9007450
  27.3744620  17.4847180  49.7127390  27.4343360  16.4623510  48.5978120
  32.8369760  18.4973110  50.0304110  31.9863350  18.1978860  50.3513180
  32.6771550  18.7415120  49.1187930  29.9319470  19.9974860  52.1302900
  30.2572880  19.1638610  51.7905130  30.7199800  20.5203380  52.2781230
  26.6654260  14.0306340  38.1777960  26.0408440  14.0266210  38.9031270
  26.5784380  13.1637300  37.7813930  25.5871340  14.9542970  45.1561730
  25.8843670  15.8605800  45.0753750  26.1356900  14.4661750  44.5421300
  23.3409660  19.5329210  41.0253380  23.1150580  19.3166380  41.9300000
  22.5602190  19.9657670  40.6799350  30.5707420  19.5392580  39.6244030
  29.9716310  20.2628380  39.4407650  31.1187030  19.4769360  38.8420480
  25.7808870  20.4314790  51.6913650  25.6852470  19.4909520  51.5414050
  26.6240850  20.6529860  51.2961720  29.1772290  18.1756120  41.6547310
  29.5701860  18.4928320  40.8416000  29.5389140  17.2968000  41.7691830
  20.9119410  16.8428460  49.8447430  20.5182800  17.6903670  50.0520210
  20.2237810  16.2054830  50.0356070  27.4864460  16.9263430  52.9144170
  26.7962780  16.7335630  53.5490260  28.2296760  17.2098070  53.4468470
  18.2136460  14.7656920  43.8777510  17.9249510  15.3359780  44.5902490
  18.9582220  14.2861370  44.2408740  18.4006690  18.7077040  35.0880230
  18.3181360  19.6507800  35.2295220  18.0489750  18.5651950  34.2092580
  26.2004820  17.4416070  44.1550580  26.2040880  17.0006020  43.3055120
  27.0955940  17.7633400  44.2622400  22.0507200  17.3242560  43.1144790
  21.7107250  17.8017790  43.8711840  21.2884520  16.8707680  42.7545890
  26.2624970  18.4428150  37.1457340  26.3837790  18.4014630  38.0943160
  25.8773480  19.3052300  36.9904070  30.2253340  16.2195550  45.1621030
  30.2426080  16.6704200  46.0062880  29.9768920  15.3201190  45.3754470
  25.2746470  20.7529290  36.5440640  24.7063370  20.3047540  35.9176550
  25.9835470  21.1122070  36.0105790  33.6524090  13.6327730  51.0007410
  33.9769860  12.9017390  51.5265390  33.6880600  13.3141370  50.0988400
  20.3515650  24.6541310  50.4207370  19.9670440  24.0134980  51.0190330
  20.6627840  25.3577430  50.9902100  26.5012790  21.5017850  45.9015990
  26.8682920  21.0276420  46.6477330  26.3117850  22.3759420  46.2424330
  19.3653280  16.2461540  42.0309460  19.0800200  15.8817210  42.8688080
  19.3032140  15.5142000  41.4172600  24.2912160  20.5426490  48.2200200
  23.9869230  21.4218470  48.4450560  25.2458620  20.6026280  48.2557640
  22.8193950  24.7487480  38.8167050  22.0456210  24.2085100  38.6565770
  23.5488580  24.2294090  38.4784810  29.0391870  15.1390800  38.7522830
  28.2256480  14.6403970  38.6768140  28.8453820  15.9789050  38.3359180
  28.9600730  23.8161900  50.4962440  28.8938040  22.8957570  50.2420030
  28.3305870  23.9137340  51.2107080  31.7540260  19.5110450  37.0484990
  32.6419880  19.8227680  36.8736330  31.7245350  18.6382700  36.6565570
  22.8631350  24.4167860  42.4545860  23.3810020  23.6136120  42.4002750
  22.4115370  24.3547000  43.2962690  20.3475890  21.3829230  49.3671560
  19.9890830  22.0483080  49.9544900  20.0530450  20.5512780  49.7384180
  23.5489010  21.8413470  52.2511110  23.2489150  21.9870650  51.3538930
  24.3200250  21.2818760  52.1584500  28.8917460  26.6382470  50.2466240
  28.9062000  25.7063430  50.0285150  28.1842560  26.7242230  50.8856010
  35.1028670  23.2789810  49.5934820  34.3776860  23.8718590  49.3964210
  35.6304130  23.2713350  48.7948190  18.8583940  21.3820490  35.9906160
  19.7278790  21.6645290  36.2742080  18.3674260  22.1956360  35.8754970
  26.0218750  22.7693700  40.1114440  26.4781530  23.5798950  40.3374630
  25.6706960  22.4516840  40.9432930  28.3251360  28.2800040  47.3406740
  28.9693580  28.4859420  48.0180160  28.6880800  27.5188440  46.8877590
  21.9230530  13.1131350  40.5836960  21.7945160  13.1049250  41.5321880
  21.0992550  13.4514440  40.2327970  31.3721060  27.0827290  49.2620250
  31.7077300  27.6693980  49.9398170  30.4521400  26.9520000  49.4918040
  19.2255190  30.5947870  36.5567790  19.5852830  31.1937210  35.9025060
  19.0847530  31.1407760  37.3302820  18.9224460  14.8722470  50.0443660
  18.2082980  15.0719390  50.6496270  19.3419500  14.0962040  50.4158460
  19.2097050  28.8602730  51.0310190  19.3188170  27.9197470  50.8905580
  18.5577610  29.1257480  50.3823920  27.2009640  27.1318620  52.4308310
  26.8806510  26.4127860  52.9754000  26.5268000  27.8073690  52.5044370
  25.2423810  27.9779070  37.3741460  25.2333910  28.7108760  36.7585970
  24.3222170  27.7310650  37.4668420  20.8430450  23.1993960  38.1188220
  20.2358400  23.9392860  38.1283520  21.3179800  23.2893320  37.2926420
  30.4163240  17.3644780  47.7945110  30.7844060  16.5439990  48.1224680
  29.5561440  17.4246670  48.2100760  33.7825270  16.3201720  38.6032670
  33.1538430  16.4247390  37.8890900  33.2877190  16.5398500  39.3926550
  25.7509300  18.5987670  40.0190550  25.0425450  19.0674010  40.4604160
  26.0353780  17.9409680  40.6535740  27.3765230  20.0184370  48.0183080
  27.8750480  20.4930190  48.6834930  27.5188180  19.0947890  48.2253110
  29.7824730  15.3238330  41.4586340  29.6592510  15.3424460  40.5095850
  30.7309290  15.3717270  41.5784740  23.9544320  16.9072750  37.3941260
  24.8034850  17.3442900  37.3281450  23.5875590  17.2193010  38.2213320
  34.5832090  16.2352330  48.8611470  34.0805690  16.9757730  49.2005280
  35.3988750  16.6236330  48.5448260  22.8535740  23.1605110  35.8676790
  23.6199010  23.0486470  36.4302220  22.9310430  22.4643080  35.2153560
  21.5482500  20.5930180  36.5509680  21.6286090  19.6457690  36.6627080
  22.4402250  20.9237060  36.6570340  22.3497210  30.7425570  43.6544220
  23.0859690  30.1941030  43.9252790  22.7338130  31.6081580  43.5150210
  19.2342690  26.8099140  39.5285730  18.3082470  27.0520280  39.5191140
  19.6999120  27.6373400  39.4070480  21.3555490  29.9271640  52.8429800
  22.1568220  30.2483690  53.2565200  20.8407310  29.5667220  53.5649710
  30.1920120  26.0351510  52.7905210  29.5858280  26.0583110  52.0500960
  29.8874230  25.3034550  53.3272460  31.6220490  29.7631800  51.4014620
  32.5742240  29.6789820  51.3514860  31.4748710  30.4273510  52.0748410
  19.0753300  22.4145100  51.7865850  19.5792320  21.8352380  52.3582080
  18.3360720  22.6985330  52.3242220  26.1291240  23.8216090  51.3201370
  25.3636910  24.3901090  51.2356040  26.3107200  23.5292300  50.4269600
  33.2714590  25.5521420  51.8776390  34.0124060  25.8897180  51.3743850
  32.5087270  25.7213480  51.3246160  21.1076380  20.5574690  52.6815920
  21.1481720  20.2588560  53.5901150  21.9621880  20.9582300  52.5223440
  24.8854770  23.1570240  37.8419430  25.3071190  22.9910110  38.6850820
  25.0105610  22.3470470  37.3474570  23.0482190  19.1366790  50.6490410
  22.5178650  18.6457740  50.0213750  23.7170260  19.5650990  50.1148340
  31.9460250  23.6036250  50.4131600  32.3601270  23.7581330  51.2622020
  31.0111250  23.7291470  50.5757380  32.4182420  20.9432410  52.4170750
  33.0003190  20.1884730  52.3291230  32.5944190  21.4739850  51.6402230
  23.5354490  16.1029160  50.7287700  23.4411360  15.4849910  50.0038570
  22.9551880  16.8295450  50.5017610  26.3015930  14.6602400  47.7615090
  25.8533230  14.6826660  46.9160640  25.6681130  14.2621420  48.3585390
  26.7075480  23.5556730  48.3827530  27.1263590  24.3989460  48.2103770
  25.7884110  23.6928770  48.1534310  29.0439380  21.2872910  49.7665370
  29.1635590  20.6914050  50.5060210  29.9033380  21.3242600  49.3466670
  23.7813670  19.2303470  34.7877590  23.5802730  18.3670830  35.1490930
  23.6105720  19.1436830  33.8499190  24.5582900  29.8609740  49.4985260
  24.0203990  30.5855800  49.1793960  24.8116860  29.3840080  48.7082600
  25.8108150  17.8294260  51.0241190  26.4007840  17.5210110  51.7119010
  24.9928390  17.3574010  51.1801090  30.6301580  17.4460070  51.2574210
  29.9417100  16.7841610  51.1924200  31.3507600  16.9998340  51.7022670
  31.2601980  14.0411700  37.3164470  31.5404270  13.1979600  37.6723890
  30.4867710  14.2734810  37.8303220  22.5796470  16.3304090  34.7755470
  22.8822370  16.3371520  33.8674620  23.3191060  15.9801950  35.2723130
  27.4145110  31.0960950  49.7571910  27.3403810  31.9996090  50.0644280
  26.5123950  30.7772850  49.7293980  25.7981400  15.2738710  35.7611670
  25.4503400  14.5962700  35.1814120  25.9994170  14.8128220  36.5755060
  21.6026600  25.6346510  35.6085270  22.0401470  26.1776180  36.2642850
  22.0874330  24.8093460  35.6181610  18.8172400  28.4235540  43.0605530
  19.1475410  27.5556600  42.8284170  19.2463400  28.6294060  43.8910490
  23.4134320  26.7544550  40.7207500  23.1129860  26.6309520  41.6211410
  23.3071810  25.8953140  40.3123230  19.3062610  29.2906130  45.7987160
  18.8693600  29.4706930  46.6311310  19.8740290  30.0480750  45.6568880
  34.9424790  28.7923130  50.0864470  34.3426780  28.8515690  49.3428390
  35.0718690  27.8528110  50.2161320  19.1387040  21.8026360  42.1576040
  18.4835880  21.5338000  41.5135740  19.9764990  21.6930840  41.7078020
  32.0877480  16.5967650  36.3794530  32.5062360  16.4098630  35.5391190
  31.7813540  15.7446700  36.6897460  20.1762970  22.1878930  46.6979380
  20.5436010  22.1006330  47.5775400  19.6073790  21.4245480  46.5986240
  34.9766830  20.6563310  49.7109850  34.7452920  20.4276060  48.8107800
  35.2371380  21.5762860  49.6654740  19.7278970  19.0988020  50.6037800
  18.8335020  19.0654780  50.9431510  20.2676520  19.2974810  51.3689050
  33.4154900  15.8819740  52.4889550  34.2925080  15.8903140  52.8723550
  33.4275740  15.1450580  51.8781900  18.3525120  19.0125290  38.1001370
  17.4489200  19.2755490  37.9253030  18.8365740  19.2836460  37.3201330
  34.8618170  19.7349280  43.3777570  35.3855650  19.2411930  42.7467740
  35.4477590  19.8699640  44.1225140  35.0407890  19.8189150  46.8997120
  34.0910600  19.7852690  47.0142110  35.2220900  20.7289260  46.6646890
  20.8952330  18.0690830  36.0095750  21.6044030  17.6474050  35.5243030
  20.1792270  18.1366060  35.3779100  20.5426490  14.1230160  35.0498400
  21.2654620  14.6639100  35.3679620  20.8151010  13.8493580  34.1739940
  34.3518140  18.9922630  39.3169980  34.8477260  18.7593500  40.1018860
  34.1534210  18.1534470  38.9007620  20.2318680  13.3736350  44.9521020
  20.8794870  12.8233730  44.5116180  20.6520520  13.6279500  45.7736830
  35.7805300  17.6283580  41.8507660  35.6704580  17.4739620  42.7889930
  36.5412890  17.1004520  41.6083070  34.1271020  13.5677710  48.3090660
  34.7643240  14.1811850  48.6749850  34.2745910  13.6038370  47.3639890
  36.6695570  15.4591500  35.0913800  37.5944880  15.3272680  34.8832090
  36.6471360  15.5384320  36.0450250  36.7434060  16.2302160  37.7170510
  35.9485560  16.1647280  38.2463420  36.9477340  17.1652800  37.7055860
  19.9850680  13.5292020  47.6946340  19.6365500  13.9855840  48.4604520
  19.6538380  12.6349150  47.7768770  21.5915050  26.7011620  51.8599530
  21.5484680  26.3304530  52.7413990  21.7226060  27.6389190  52.0001350
  25.2921080  28.2571210  47.4609250  25.0512440  28.5245770  46.5739770
  26.2323720  28.4276940  47.5160110  27.4975500  14.7203900  51.2165760
  27.4364390  15.3125730  51.9661170  28.4375880  14.6129860  51.0716020
  30.1350060  14.3773960  50.8558050  30.7490470  14.6953250  50.1939130
  30.6799620  13.8922550  51.4753910  36.5525240  30.2765590  48.2619890
  36.0583520  30.6734460  47.5447020  35.9438530  29.6514800  48.6557170
  20.6571320  13.0568220  50.9697110  21.2054310  12.8756270  50.2063220
  20.7226630  12.2662330  51.5053420  21.4303080  29.6473870  48.9797310
  20.8363400  29.5158570  49.7187350  21.4226920  28.8112010  48.5139410
  30.8758100  12.9406100  47.1827340  30.0017940  13.2741210  46.9800270
  30.7668850  12.4679280  48.0079210  31.7830080  15.1476970  48.5669060
  31.4543440  14.3328730  48.1870790  32.7312380  15.1046780  48.4434750
  21.0615310  27.0132250  47.9305350  20.3349370  26.3937540  47.8631300
  21.1224460  27.4072860  47.0603430  24.6660410  29.2277250  44.7154760
  25.1825430  28.6164610  44.1903020  25.3157790  29.7306030  45.2065770
  27.4055910  30.1185740  45.5423740  27.6933720  29.8640040  44.6656750
  27.9179130  29.5663100  46.1329310  28.6232920  13.8575940  46.1220250
  27.8404710  14.3321440  46.4017010  28.3295850  12.9530770  46.0133430
  33.1753990  14.5599040  44.1669340  33.6162080  14.5044140  43.3190940
  32.9061580  15.4757050  44.2379520  35.0392560  14.1914280  42.1778160
  34.9780960  13.2475500  42.0309180  35.8184590  14.2994370  42.7231620
  19.3445310  30.3306640  41.1402110  19.1767350  29.6977320  41.8384000
  18.4779820  30.5366040  40.7896300  19.9673330  14.1623420  38.6433970
  20.7252690  14.2752300  38.0698000  19.5050500  14.9992620  38.5977400
  26.5087140  16.2762690  41.6336280  25.6961650  15.9019580  41.2932160
  27.0128780  15.5207770  41.9357470  31.0112120  12.9405140  42.8719350
  31.6141490  13.5125350  43.3467870  30.2705110  13.5044580  42.6493250
  34.1546720  13.3426700  38.1459630  34.3497350  14.2410150  38.4127060
  33.3676590  13.1113780  38.6392580  20.9508010  29.0239870  38.5852250
  20.4255630  29.4047900  37.8814210  20.8752590  29.6490640  39.3061960
  22.3398480  14.6887470  37.1835940  22.8691240  13.9017270  37.0543890
  22.9726800  15.3678660  37.4171470  24.5336320  14.4262610  40.2381330
  23.9039060  13.7249920  40.4051460  23.9941460  15.1866740  40.0214490
  27.4728270  31.0401840  52.9091940  28.3995580  30.8046110  52.9527900
  27.4578700  31.8673840  52.4277970  24.6591880  13.7046590  52.6733820
  24.3776150  14.2080190  51.9094640  25.0411580  12.9068340  52.3075950
  23.5500980  30.9722250  37.4601500  24.2819800  30.6881530  36.9125390
  23.8094650  30.7335530  38.3500880  22.7115770  27.0886980  37.4647830
  22.0824650  27.5572080  38.0133660  22.8263600  26.2436200  37.8994020
  31.2607340  13.1200170  53.2514290  31.1472790  13.4394780  54.1465810
  32.0777080  13.5212680  52.9551570  34.0405830  30.2671700  52.7332980
  34.8331150  29.7720930  52.5258940  34.3338980  30.9461840  53.3408590
  30.1665490  21.1392640  23.6149030  30.0859540  20.2247250  23.3440740
  29.7529910  21.6359710  22.9088740  28.2983530  22.9171660  25.4958300
  27.5225630  22.4372100  25.7856870  28.9496460  22.2377310  25.3214460
  22.3149360  23.2291470  26.3734060  21.4834240  22.9740180  26.7730570
  22.9230340  23.3002240  27.1091980  22.2950620  27.2631560  26.5692080
  22.5978660  26.3729300  26.3902300  23.0394210  27.8201780  26.3414330
  20.7241310  18.1893360  20.1576450  19.8358010  18.5309330  20.0556330
  21.0082500  17.9893680  19.2657280  18.6874320  20.7899010  26.0416150
  19.2590430  20.0221210  26.0419790  18.6875860  21.0887770  25.1322760
  19.9299190  16.1983370  27.8285080  19.7502030  15.3009120  28.1087840
  19.5279270  16.7455240  28.5032030  28.7697690  18.3999230  25.7297390
  29.1462510  17.5271110  25.6171060  28.6717200  18.7357930  24.8387830
  22.9002700  16.7724860  21.1914830  23.0069450  17.6728590  21.4983590
  21.9895060  16.7242830  20.9009480  32.5521810  15.8949670  22.6625730
  33.3731430  15.4046240  22.7051210  32.5855890  16.4847330  23.4157570
  20.5485860  18.6943870  26.4367420  21.2295970  18.9582240  27.0554820
  20.2333910  17.8544740  26.7705430  24.7410430  19.7411230  25.5240010
  25.2488650  20.2392200  26.1645030  25.2723670  18.9646430  25.3479370
  36.8421360  17.9116420  29.2269360  36.1373530  18.2998130  28.7084470
  37.1079280  18.6066710  29.8290290  23.0246530  14.3809790  29.7903430
  23.0264970  14.8982180  28.9849330  22.1950840  13.9039970  29.7673360
  29.4117620  24.4929100  21.2893330  28.7934890  24.9578550  20.7256050
  29.9240870  25.1856580  21.7062840  24.2749380  24.0204970  27.9676930
  23.9418760  24.6473890  28.6098000  24.4516060  24.5466850  27.1878600
  32.7883290  17.8350050  25.4353270  32.0838860  18.1234940  26.0156380
  33.1495450  18.6450160  25.0752830  22.7061860  16.0919750  27.7973880
  23.0478670  16.9361800  27.5027750  21.7677670  16.2403490  27.9139220
  23.4868480  25.9885770  29.7826110  24.1042480  26.6636850  29.5010560
  22.6261600  26.3973750  29.6913610  18.7800820  25.1785630  18.6632960
  18.4028800  25.6672730  17.9317860  19.0373890  25.8510910  19.2939490
  35.8570210  17.2804840  25.8262480  34.9095120  17.3143820  25.9577910
  36.1820200  18.0943790  26.2111840  26.3889750  13.5802020  24.1218470
  26.6964730  13.0248910  23.4053970  25.4590450  13.7146480  23.9391460
  33.2350230  26.0185530  21.5016100  33.1246560  25.0759860  21.6265520
  33.2318480  26.3801170  22.3878860  28.7770510  21.6450850  20.8578590
  27.8499790  21.5788230  21.0867060  28.9295330  22.5830980  20.7433830
  28.7639590  17.9167850  17.8545750  27.8243260  18.0781810  17.9398210
  29.0822850  18.6353530  17.3081740  32.8067800  23.2071150  21.3613840
  32.1880220  22.8690700  20.7140140  32.7892250  22.5630910  22.0693030
  32.2494360  19.3855690  28.7779650  31.8365540  20.2109400  29.0319640
  31.5170310  18.8000730  28.5856010  24.3827150  22.1715590  23.6398320
  23.9784150  21.4592840  23.1444220  24.4690270  21.8268830  24.5286360
  24.8508850  25.8583150  25.8037530  24.5537140  25.2528620  25.1245310
  25.8008670  25.8960460  25.6926890  23.0955770  18.9458800  27.4197360
  23.6470360  19.0554140  26.6450610  23.6099280  19.3196400  28.1352590
  23.9427280  25.5964840  32.4545330  23.0455810  25.8204810  32.7018730
  23.9680150  25.7199780  31.5056730  30.9832500  22.4457960  18.3686590
  31.4225780  21.6080390  18.2224410  31.6960920  23.0787360  18.4550730
  22.7698500  22.4678160  31.0302700  22.6306270  23.3400960  31.3990100
  21.8879860  22.1250970  30.8850640  29.0927880  27.3854030  22.3367830
  29.5323790  28.1278360  21.9223220  29.0314770  27.6280600  23.2606790
  24.5678850  28.4099860  33.2387850  24.5394280  28.8142810  32.3716280
  24.4043820  27.4810220  33.0759450  34.5649640  13.7000770  16.6827630
  34.2522300  13.7927600  17.5826700  35.3262110  14.2781800  16.6325060
  21.0831780  21.0660570  21.1404970  20.9629380  21.7922660  20.5286240
  20.7732670  20.2963480  20.6632880  18.7217150  24.2375710  26.9473610
  18.7997570  24.3724480  26.0029330  19.3358830  23.5291600  27.1401730
  19.9664780  25.9375900  23.3579790  19.5592860  26.0790490  22.5033390
  20.8577790  25.6536060  23.1551000  31.7598060  30.3723150  19.6930840
  31.5999200  30.0826090  20.5912670  31.5944770  29.5963280  19.1576070
  24.2386440  30.1521680  21.4702460  24.0628920  29.2357220  21.2570260
  23.3842180  30.5108970  21.7100260  31.4624190  27.8810710  18.2528840
  30.7689350  27.8788000  17.5931120  32.2047050  27.4570030  17.8223010
  35.7750930  18.4372270  32.6601770  35.1595200  18.9451940  32.1317230
  35.4547350  17.5370600  32.6027710  18.7776670  25.2789880  29.4868070
  18.9407710  24.8095240  28.6687440  19.2429120  24.7713440  30.1516910
  23.5495440  14.4095640  24.5228640  23.1063590  15.1905180  24.1913160
  24.1080430  14.7325530  25.2299580  27.8365250  17.2764160  30.1263960
  27.3744620  17.4847180  30.9383900  27.4343360  16.4623510  29.8234630
  32.8369760  18.4973110  31.2560620  31.9863350  18.1978860  31.5769690
  32.6771550  18.7415120  30.3444440  29.9319470  19.9974860  33.3559410
  30.2572880  19.1638610  33.0161640  30.7199800  20.5203380  33.5037740
  26.6654260  14.0306340  19.4034470  26.0408440  14.0266210  20.1287780
  26.5784380  13.1637300  19.0070440  25.5871340  14.9542970  26.3818240
  25.8843670  15.8605800  26.3010260  26.1356900  14.4661750  25.7677810
  23.3409660  19.5329210  22.2509890  23.1150580  19.3166380  23.1556510
  22.5602190  19.9657670  21.9055860  30.5707420  19.5392580  20.8500540
  29.9716310  20.2628380  20.6664160  31.1187030  19.4769360  20.0676990
  25.7808870  20.4314790  32.9170160  25.6852470  19.4909520  32.7670560
  26.6240850  20.6529860  32.5218230  29.1772290  18.1756120  22.8803820
  29.5701860  18.4928320  22.0672510  29.5389140  17.2968000  22.9948340
  20.9119410  16.8428460  31.0703940  20.5182800  17.6903670  31.2776720
  20.2237810  16.2054830  31.2612580  27.4864460  16.9263430  34.1400680
  26.7962780  16.7335630  34.7746770  28.2296760  17.2098070  34.6724980
  18.2136460  14.7656920  25.1034020  17.9249510  15.3359780  25.8159000
  18.9582220  14.2861370  25.4665250  18.4006690  18.7077040  16.3136740
  18.3181360  19.6507800  16.4551730  18.0489750  18.5651950  15.4349090
  29.7627430  20.7661870  26.9754600  29.0308550  21.2748680  27.3244700
  29.3651770  19.9491850  26.6743380  26.2004820  17.4416070  25.3807090
  26.2040880  17.0006020  24.5311630  27.0955940  17.7633400  25.4878910
  22.0507200  17.3242560  24.3401300  21.7107250  17.8017790  25.0968350
  21.2884520  16.8707680  23.9802400  26.2624970  18.4428150  18.3713850
  26.3837790  18.4014630  19.3199670  25.8773480  19.3052300  18.2160580
  30.2253340  16.2195550  26.3877540  30.2426080  16.6704200  27.2319390
  29.9768920  15.3201190  26.6010980  25.2746470  20.7529290  17.7697150
  24.7063370  20.3047540  17.1433060  25.9835470  21.1122070  17.2362300
  33.6524090  13.6327730  32.2263920  33.9769860  12.9017390  32.7521900
  33.6880600  13.3141370  31.3244910  20.3515650  24.6541310  31.6463880
  19.9670440  24.0134980  32.2446840  20.6627840  25.3577430  32.2158610
  26.5012790  21.5017850  27.1272500  26.8682920  21.0276420  27.8733840
  26.3117850  22.3759420  27.4680840  19.3653280  16.2461540  23.2565970
  19.0800200  15.8817210  24.0944590  19.3032140  15.5142000  22.6429110
  24.2912160  20.5426490  29.4456710  23.9869230  21.4218470  29.6707070
  25.2458620  20.6026280  29.4814150  22.8193950  24.7487480  20.0423560
  22.0456210  24.2085100  19.8822280  23.5488580  24.2294090  19.7041320
  29.0391870  15.1390800  19.9779340  28.2256480  14.6403970  19.9024650
  28.8453820  15.9789050  19.5615690  31.7540260  19.5110450  18.2741500
  32.6419880  19.8227680  18.0992840  31.7245350  18.6382700  17.8822080
  22.8631350  24.4167860  23.6802370  23.3810020  23.6136120  23.6259260
  22.4115370  24.3547000  24.5219200  27.7500850  25.6834140  18.9529670
  28.0916550  26.4276370  18.4572990  26.9213560  25.9965260  19.3154500
  20.3475890  21.3829230  30.5928070  19.9890830  22.0483080  31.1801410
  20.0530450  20.5512780  30.9640690  23.5489010  21.8413470  33.4767620
  23.2489150  21.9870650  32.5795440  24.3200250  21.2818760  33.3841010
  34.0254530  20.8222290  17.7421360  33.9418250  21.2536510  16.8917800
  34.7448720  21.2820640  18.1748180  35.0541780  27.6764550  20.4703490
  34.4117940  27.0220170  20.7447210  34.6672440  28.0819640  19.6944160
  26.7191540  25.7647670  21.7245590  27.4062670  26.3116880  22.1053180
  25.9323960  26.3088400  21.7595200  18.8583940  21.3820490  17.2162670
  19.7278790  21.6645290  17.4998590  18.3674260  22.1956360  17.1011480
  26.0218750  22.7693700  21.3370950  26.4781530  23.5798950  21.5631140
  25.6706960  22.4516840  22.1689440  21.9230530  13.1131350  21.8093470
  21.7945160  13.1049250  22.7578390  21.0992550  13.4514440  21.4584480
  33.4439160  26.5681010  17.0079840  33.2176740  25.8511450  17.6004480
  33.0535360  26.3193450  16.1701590  19.2255190  30.5947870  17.7824300
  19.5852830  31.1937210  17.1281570  19.0847530  31.1407760  18.5559330
  18.9224460  14.8722470  31.2700170  18.2082980  15.0719390  31.8752780
  19.3419500  14.0962040  31.6414970  33.0255410  24.4852950  18.6694000
  32.7377110  24.9465640  19.4571880  33.8207580  24.0250720  18.9378220
  19.2097050  28.8602730  32.2566700  19.3188170  27.9197470  32.1162090
  18.5577610  29.1257480  31.6080430  25.2423810  27.9779070  18.5997970
  25.2333910  28.7108760  17.9842480  24.3222170  27.7310650  18.6924930
  20.8430450  23.1993960  19.3444730  20.2358400  23.9392860  19.3540030
  21.3179800  23.2893320  18.5182930  30.4163240  17.3644780  29.0201620
  30.7844060  16.5439990  29.3481190  29.5561440  17.4246670  29.4357270
  33.7825270  16.3201720  19.8289180  33.1538430  16.4247390  19.1147410
  33.2877190  16.5398500  20.6183060  28.2283410  28.0407310  17.2623160
  28.3295390  27.8371300  16.3325140  27.3285150  27.7865590  17.4670940
  25.7509300  18.5987670  21.2447060  25.0425450  19.0674010  21.6860670
  26.0353780  17.9409680  21.8792250  27.3765230  20.0184370  29.2439590
  27.8750480  20.4930190  29.9091440  27.5188180  19.0947890  29.4509620
  29.7824730  15.3238330  22.6842850  29.6592510  15.3424460  21.7352360
  30.7309290  15.3717270  22.8041250  26.8701520  30.5593630  21.9570830
  27.1243020  30.5215020  21.0350200  25.9214000  30.4326960  21.9499080
  23.9544320  16.9072750  18.6197770  24.8034850  17.3442900  18.5537960
  23.5875590  17.2193010  19.4469830  34.5832090  16.2352330  30.0867980
  34.0805690  16.9757730  30.4261790  35.3988750  16.6236330  29.7704770
  32.8754100  21.4785510  23.5329340  31.9344240  21.4935740  23.7077030
  33.1898170  20.6921470  23.9789640  22.8535740  23.1605110  17.0933300
  23.6199010  23.0486470  17.6558730  22.9310430  22.4643080  16.4410070
  21.5482500  20.5930180  17.7766190  21.6286090  19.6457690  17.8883590
  22.4402250  20.9237060  17.8826850  22.3497210  30.7425570  24.8800730
  23.0859690  30.1941030  25.1509300  22.7338130  31.6081580  24.7406720
  19.2342690  26.8099140  20.7542240  18.3082470  27.0520280  20.7447650
  19.6999120  27.6373400  20.6326990  21.3555490  29.9271640  34.0686310
  22.1568220  30.2483690  34.4821710  20.8407310  29.5667220  34.7906220
  25.4599520  29.9155880  16.7026300  26.2528130  30.2044710  16.2508090
  24.9403870  29.4848050  16.0238780  34.5129690  29.1426010  18.1263040
  34.2271200  28.7291150  17.3117220  34.3149240  30.0713720  18.0063560
  19.0753300  22.4145100  33.0122360  19.5792320  21.8352380  33.5838590
  18.3360720  22.6985330  33.5498730  25.9776920  25.1359290  16.5668650
  25.8727560  24.5211640  17.2930030  25.8101140  24.6125180  15.7831660
  29.2179650  24.1979320  17.1710640  28.6689750  24.6448620  17.8153380
  29.8398910  23.6928570  17.6948310  21.1076380  20.5574690  33.9072430
  21.1481720  20.2588560  34.8157660  21.9621880  20.9582300  33.7479950
  24.8854770  23.1570240  19.0675940  25.3071190  22.9910110  19.9107330
  25.0105610  22.3470470  18.5731080  23.0482190  19.1366790  31.8746920
  22.5178650  18.6457740  31.2470260  23.7170260  19.5650990  31.3404850
  27.3982410  22.1807850  16.3153040  27.9188070  21.4656870  15.9494190
  28.0450810  22.8193720  16.6153550  32.4182420  20.9432410  33.6427260
  33.0003190  20.1884730  33.5547740  32.5944190  21.4739850  32.8658740
  23.5354490  16.1029160  31.9544210  23.4411360  15.4849910  31.2295080
  22.9551880  16.8295450  31.7274120  26.3015930  14.6602400  28.9871600
  25.8533230  14.6826660  28.1417150  25.6681130  14.2621420  29.5841900
  29.0439380  21.2872910  30.9921880  29.1635590  20.6914050  31.7316720
  29.9033380  21.3242600  30.5723180  23.7813670  19.2303470  16.0134100
  23.5802730  18.3670830  16.3747440  23.6105720  19.1436830  15.0755700
  24.5582900  29.8609740  30.7241770  24.0203990  30.5855800  30.4050470
  24.8116860  29.3840080  29.9339110  25.8108150  17.8294260  32.2497700
  26.4007840  17.5210110  32.9375520  24.9928390  17.3574010  32.4057600
  30.6301580  17.4460070  32.4830720  29.9417100  16.7841610  32.4180710
  31.3507600  16.9998340  32.9279180  31.2601980  14.0411700  18.5420980
  31.5404270  13.1979600  18.8980400  30.4867710  14.2734810  19.0559730
  22.5796470  16.3304090  16.0011980  22.8822370  16.3371520  15.0931130
  23.3191060  15.9801950  16.4979640  25.7981400  15.2738710  16.9868180
  25.4503400  14.5962700  16.4070630  25.9994170  14.8128220  17.8011570
  27.9630440  30.2619460  18.6054780  28.8581230  30.6004430  18.6273540
  27.9948070  29.5398870  17.9779060  21.6026600  25.6346510  16.8341780
  22.0401470  26.1776180  17.4899360  22.0874330  24.8093460  16.8438120
  18.8172400  28.4235540  24.2862040  19.1475410  27.5556600  24.0540680
  19.2463400  28.6294060  25.1167000  23.4134320  26.7544550  21.9464010
  23.1129860  26.6309520  22.8467920  23.3071810  25.8953140  21.5379740
  19.3062610  29.2906130  27.0243670  18.8693600  29.4706930  27.8567820
  19.8740290  30.0480750  26.8825390  36.1826240  26.5340950  16.6490690
  35.3519200  26.6017600  17.1197920  36.3598070  27.4245070  16.3457550
  35.6382700  23.2788430  19.1524890  36.4001610  23.8485080  19.2584580
  35.6537070  22.7115630  19.9233200  19.1387040  21.8026360  23.3832550
  18.4835880  21.5338000  22.7392250  19.9764990  21.6930840  22.9334530
  36.6442670  24.1338530  23.9966820  37.0151500  23.3505850  23.5902790
  37.2844600  24.8227630  23.8184120  35.6901870  23.5722800  16.3097410
  35.9650710  24.4801680  16.1816630  35.5012610  23.5085330  17.2459400
  32.0877480  16.5967650  17.6051040  32.5062360  16.4098630  16.7647700
  31.7813540  15.7446700  17.9153970  35.5867210  21.5091790  21.3026840
  35.2110810  20.7419720  20.8708130  34.8570330  21.8914490  21.7901770
  20.1762970  22.1878930  27.9235890  20.5436010  22.1006330  28.8031910
  19.6073790  21.4245480  27.8242750  19.7278970  19.0988020  31.8294310
  18.8335020  19.0654780  32.1688020  20.2676520  19.2974810  32.5945560
  33.4154900  15.8819740  33.7146060  34.2925080  15.8903140  34.0980060
  33.4275740  15.1450580  33.1038410  18.3525120  19.0125290  19.3257880
  17.4489200  19.2755490  19.1509540  18.8365740  19.2836460  18.5457840
  34.8618170  19.7349280  24.6034080  35.3855650  19.2411930  23.9724250
  35.4477590  19.8699640  25.3481650  35.0407890  19.8189150  28.1253630
  34.0910600  19.7852690  28.2398620  35.2220900  20.7289260  27.8903400
  20.8952330  18.0690830  17.2352260  21.6044030  17.6474050  16.7499540
  20.1792270  18.1366060  16.6035610  20.5426490  14.1230160  16.2754910
  21.2654620  14.6639100  16.5936130  20.8151010  13.8493580  15.3996450
  34.3518140  18.9922630  20.5426490  34.8477260  18.7593500  21.3275370
  34.1534210  18.1534470  20.1264130  20.2318680  13.3736350  26.1777530
  20.8794870  12.8233730  25.7372690  20.6520520  13.6279500  26.9993340
  35.7805300  17.6283580  23.0764170  35.6704580  17.4739620  24.0146440
  36.5412890  17.1004520  22.8339580  34.1271020  13.5677710  29.5347170
  34.7643240  14.1811850  29.9006360  34.2745910  13.6038370  28.5896400
  36.6695570  15.4591500  16.3170310  37.5944880  15.3272680  16.1088600
  36.6471360  15.5384320  17.2706760  36.7434060  16.2302160  18.9427020
  35.9485560  16.1647280  19.4719930  36.9477340  17.1652800  18.9312370
  19.9850680  13.5292020  28.9202850  19.6365500  13.9855840  29.6861030
  19.6538380  12.6349150  29.0025280  21.5915050  26.7011620  33.0856040
  21.5484680  26.3304530  33.9670500  21.7226060  27.6389190  33.2257860
  25.2921080  28.2571210  28.6865760  25.0512440  28.5245770  27.7996280
  26.2323720  28.4276940  28.7416620  27.4975500  14.7203900  32.4422270
  27.4364390  15.3125730  33.1917680  28.4375880  14.6129860  32.2972530
  30.1350060  14.3773960  32.0814560  30.7490470  14.6953250  31.4195640
  30.6799620  13.8922550  32.7010420  20.6571320  13.0568220  32.1953620
  21.2054310  12.8756270  31.4319730  20.7226630  12.2662330  32.7309930
  21.4303080  29.6473870  30.2053820  20.8363400  29.5158570  30.9443860
  21.4226920  28.8112010  29.7395920  30.8758100  12.9406100  28.4083850
  30.0017940  13.2741210  28.2056780  30.7668850  12.4679280  29.2335720
  31.7830080  15.1476970  29.7925570  31.4543440  14.3328730  29.4127300
  32.7312380  15.1046780  29.6691260  21.0615310  27.0132250  29.1561860
  20.3349370  26.3937540  29.0887810  21.1224460  27.4072860  28.2859940
  24.6660410  29.2277250  25.9411270  25.1825430  28.6164610  25.4159530
  25.3157790  29.7306030  26.4322280  28.6232920  13.8575940  27.3476760
  27.8404710  14.3321440  27.6273520  28.3295850  12.9530770  27.2389940
  33.1753990  14.5599040  25.3925850  33.6162080  14.5044140  24.5447450
  32.9061580  15.4757050  25.4636030  35.0392560  14.1914280  23.4034670
  34.9780960  13.2475500  23.2565690  35.8184590  14.2994370  23.9488130
  19.3445310  30.3306640  22.3658620  19.1767350  29.6977320  23.0640510
  18.4779820  30.5366040  22.0152810  19.9673330  14.1623420  19.8690480
  20.7252690  14.2752300  19.2954510  19.5050500  14.9992620  19.8233910
  26.5087140  16.2762690  22.8592790  25.6961650  15.9019580  22.5188670
  27.0128780  15.5207770  23.1613980  31.0112120  12.9405140  24.0975860
  31.6141490  13.5125350  24.5724380  30.2705110  13.5044580  23.8749760
  34.1546720  13.3426700  19.3716140  34.3497350  14.2410150  19.6383570
  33.3676590  13.1113780  19.8649090  20.9508010  29.0239870  19.8108760
  20.4255630  29.4047900  19.1070720  20.8752590  29.6490640  20.5318470
  22.3398480  14.6887470  18.4092450  22.8691240  13.9017270  18.2800400
  22.9726800  15.3678660  18.6427980  24.5336320  14.4262610  21.4637840
  23.9039060  13.7249920  21.6307970  23.9941460  15.1866740  21.2471000
  35.7073330  30.5827410  21.1322700  35.8825520  29.8965150  20.4883620
  35.0094900  31.1074460  20.7399370  24.6591880  13.7046590  33.8990330
  24.3776150  14.2080190  33.1351150  25.0411580  12.9068340  33.5332460
  23.5500980  30.9722250  18.6858010  24.2819800  30.6881530  18.1381900
  23.8094650  30.7335530  19.5757390  22.7115770  27.0886980  18.6904340
  22.0824650  27.5572080  19.2390170  22.8263600  26.2436200  19.1250530
  31.2607340  13.1200170  34.4770800  31.1472790  13.4394780  35.3722320
  32.0777080  13.5212680  34.1808080  30.1665490  21.1392640   4.8405540
  30.0859540  20.2247250   4.5697250  29.7529910  21.6359710   4.1345250
  28.2983530  22.9171660   6.7214810  27.5225630  22.4372100   7.0113380
  28.9496460  22.2377310   6.5470970  22.3149360  23.2291470   7.5990570
  21.4834240  22.9740180   7.9987080  22.9230340  23.3002240   8.3348490
  32.3190960  27.3231850   5.5013940  31.8572490  26.5519090   5.8301110
  33.1316510  27.3497920   6.0066390  22.2950620  27.2631560   7.7948590
  22.5978660  26.3729300   7.6158810  23.0394210  27.8201780   7.5670840
  18.6874320  20.7899010   7.2672660  19.2590430  20.0221210   7.2676300
  18.6875860  21.0887770   6.3579270  28.5454270  29.6089860   5.1217930
  27.9265710  30.0647360   4.5512370  29.4006050  29.7641320   4.7207630
  27.7392520  25.5928850   6.7284970  27.6700800  24.6518790   6.5674100
  28.5012380  25.6830260   7.3007540  19.9299190  16.1983370   9.0541590
  19.7502030  15.3009120   9.3344350  19.5279270  16.7455240   9.7288540
  28.7697690  18.3999230   6.9553900  29.1462510  17.5271110   6.8427570
  28.6717200  18.7357930   6.0644340  22.9002700  16.7724860   2.4171340
  23.0069450  17.6728590   2.7240100  21.9895060  16.7242830   2.1265990
  32.5521810  15.8949670   3.8882240  33.3731430  15.4046240   3.9307720
  32.5855890  16.4847330   4.6414080  20.5485860  18.6943870   7.6623930
  21.2295970  18.9582240   8.2811330  20.2333910  17.8544740   7.9961940
  24.7410430  19.7411230   6.7496520  25.2488650  20.2392200   7.3901540
  25.2723670  18.9646430   6.5735880  36.8421360  17.9116420  10.4525870
  36.1373530  18.2998130   9.9340980  37.1079280  18.6066710  11.0546800
  23.0246530  14.3809790  11.0159940  23.0264970  14.8982180  10.2105840
  22.1950840  13.9039970  10.9929870  29.4117620  24.4929100   2.5149840
  28.7934890  24.9578550   1.9512560  29.9240870  25.1856580   2.9319350
  24.2749380  24.0204970   9.1933440  23.9418760  24.6473890   9.8354510
  24.4516060  24.5466850   8.4135110  32.7883290  17.8350050   6.6609780
  32.0838860  18.1234940   7.2412890  33.1495450  18.6450160   6.3009340
  22.7061860  16.0919750   9.0230390  23.0478670  16.9361800   8.7284260
  21.7677670  16.2403490   9.1395730  23.4868480  25.9885770  11.0082620
  24.1042480  26.6636850  10.7267070  22.6261600  26.3973750  10.9170120
  34.4046070  27.4525180   8.9237260  33.7209590  28.1224290   8.9153930
  34.9440360  27.6505830   8.1582120  35.8570210  17.2804840   7.0518990
  34.9095120  17.3143820   7.1834420  36.1820200  18.0943790   7.4368350
  26.3889750  13.5802020   5.3474980  26.6964730  13.0248910   4.6310480
  25.4590450  13.7146480   5.1647970  31.9404810  29.2969310   7.6382440
  31.9531970  28.8931600   6.7704700  31.3880030  30.0716600   7.5343870
  33.2350230  26.0185530   2.7272610  33.1246560  25.0759860   2.8522030
  33.2318480  26.3801170   3.6135370  31.3390250  24.1999150   8.9665050
  31.7559040  23.9859260   8.1318510  32.0630070  24.4571940   9.5373670
  28.7770510  21.6450850   2.0835100  27.8499790  21.5788230   2.3123570
  28.9295330  22.5830980   1.9690340  35.2852350  22.5986370   9.0581290
  34.4570980  22.6679460   8.5831420  35.8802830  23.1840680   8.5897120
  32.8067800  23.2071150   2.5870350  32.1880220  22.8690700   1.9396650
  32.7892250  22.5630910   3.2949540  32.2494360  19.3855690  10.0036160
  31.8365540  20.2109400  10.2576150  31.5170310  18.8000730   9.8112520
  24.3827150  22.1715590   4.8654830  23.9784150  21.4592840   4.3700730
  24.4690270  21.8268830   5.7542870  24.8508850  25.8583150   7.0294040
  24.5537140  25.2528620   6.3501820  25.8008670  25.8960460   6.9183400
  23.0955770  18.9458800   8.6453870  23.6470360  19.0554140   7.8707120
  23.6099280  19.3196400   9.3609100  32.9394460  29.4315020  10.6917140
  32.4625020  30.2387210  10.4989750  32.2556250  28.7793350  10.8443350
  23.9427280  25.5964840  13.6801840  23.0455810  25.8204810  13.9275240
  23.9680150  25.7199780  12.7313240  22.7698500  22.4678160  12.2559210
  22.6306270  23.3400960  12.6246610  21.8879860  22.1250970  12.1107150
  29.0927880  27.3854030   3.5624340  29.5323790  28.1278360   3.1479730
  29.0314770  27.6280600   4.4863300  24.5678850  28.4099860  14.4644360
  24.5394280  28.8142810  13.5972790  24.4043820  27.4810220  14.3015960
  21.0831780  21.0660570   2.3661480  20.9629380  21.7922660   1.7542750
  20.7732670  20.2963480   1.8889390  36.5193670  29.1926960  15.7608530
  36.9953390  29.6709850  16.4397610  37.1400830  29.1244450  15.0354030
  18.7217150  24.2375710   8.1730120  18.7997570  24.3724480   7.2285840
  19.3358830  23.5291600   8.3658240  19.9664780  25.9375900   4.5836300
  19.5592860  26.0790490   3.7289900  20.8577790  25.6536060   4.3807510
  35.9226920  26.3839810  12.9208540  36.0489980  26.1451690  12.0025720
  35.9648300  25.5524350  13.3930620  29.7843660  30.0867810  11.4903350
  30.2988330  29.9975820  12.2925780  28.9412740  30.4327510  11.7831260
  24.2386440  30.1521680   2.6958970  24.0628920  29.2357220   2.4826770
  23.3842180  30.5108970   2.9356770  31.0274120  29.5073420   3.5533840
  31.4831070  28.7262800   3.8672460  31.3666640  30.2180240   4.0975020
  35.7750930  18.4372270  13.8858280  35.1595200  18.9451940  13.3573740
  35.4547350  17.5370600  13.8284220  18.7776670  25.2789880  10.7124580
  18.9407710  24.8095240   9.8943950  19.2429120  24.7713440  11.3773420
  23.5495440  14.4095640   5.7485150  23.1063590  15.1905180   5.4169670
  24.1080430  14.7325530   6.4556090  27.8365250  17.2764160  11.3520470
  27.3744620  17.4847180  12.1640410  27.4343360  16.4623510  11.0491140
  32.8369760  18.4973110  12.4817130  31.9863350  18.1978860  12.8026200
  32.6771550  18.7415120  11.5700950  29.9319470  19.9974860  14.5815920
  30.2572880  19.1638610  14.2418150  30.7199800  20.5203380  14.7294250
  25.5871340  14.9542970   7.6074750  25.8843670  15.8605800   7.5266770
  26.1356900  14.4661750   6.9934320  23.3409660  19.5329210   3.4766400
  23.1150580  19.3166380   4.3813020  22.5602190  19.9657670   3.1312370
  25.7808870  20.4314790  14.1426670  25.6852470  19.4909520  13.9927070
  26.6240850  20.6529860  13.7474740  29.1772290  18.1756120   4.1060330
  29.5701860  18.4928320   3.2929020  29.5389140  17.2968000   4.2204850
  20.9119410  16.8428460  12.2960450  20.5182800  17.6903670  12.5033230
  20.2237810  16.2054830  12.4869090  27.4864460  16.9263430  15.3657190
  26.7962780  16.7335630  16.0003280  28.2296760  17.2098070  15.8981490
  18.2136460  14.7656920   6.3290530  17.9249510  15.3359780   7.0415510
  18.9582220  14.2861370   6.6921760  29.7627430  20.7661870   8.2011110
  29.0308550  21.2748680   8.5501210  29.3651770  19.9491850   7.8999890
  26.2004820  17.4416070   6.6063600  26.2040880  17.0006020   5.7568140
  27.0955940  17.7633400   6.7135420  22.0507200  17.3242560   5.5657810
  21.7107250  17.8017790   6.3224860  21.2884520  16.8707680   5.2058910
  30.2253340  16.2195550   7.6134050  30.2426080  16.6704200   8.4575900
  29.9768920  15.3201190   7.8267490  33.6524090  13.6327730  13.4520430
  33.9769860  12.9017390  13.9778410  33.6880600  13.3141370  12.5501420
  20.3515650  24.6541310  12.8720390  19.9670440  24.0134980  13.4703350
  20.6627840  25.3577430  13.4415120  26.5012790  21.5017850   8.3529010
  26.8682920  21.0276420   9.0990350  26.3117850  22.3759420   8.6937350
  19.3653280  16.2461540   4.4822480  19.0800200  15.8817210   5.3201100
  19.3032140  15.5142000   3.8685620  24.2912160  20.5426490  10.6713220
  23.9869230  21.4218470  10.8963580  25.2458620  20.6026280  10.7070660
  33.5781930  23.7452840   7.0606460  34.2981050  24.2408130   6.6702570
  33.3763750  23.0670730   6.4160330  28.9600730  23.8161900  12.9475460
  28.8938040  22.8957570  12.6933050  28.3305870  23.9137340  13.6620100
  22.8631350  24.4167860   4.9058880  23.3810020  23.6136120   4.8515770
  22.4115370  24.3547000   5.7475710  20.3475890  21.3829230  11.8184580
  19.9890830  22.0483080  12.4057920  20.0530450  20.5512780  12.1897200
  23.5489010  21.8413470  14.7024130  23.2489150  21.9870650  13.8051950
  24.3200250  21.2818760  14.6097520  28.8917460  26.6382470  12.6979260
  28.9062000  25.7063430  12.4798170  28.1842560  26.7242230  13.3369030
  35.1028670  23.2789810  12.0447840  34.3776860  23.8718590  11.8477230
  35.6304130  23.2713350  11.2461210  30.6328260  25.0049980   5.5431690
  30.9852080  24.4078110   4.8833060  29.7490590  24.6794210   5.7139940
  26.7191540  25.7647670   2.9502100  27.4062670  26.3116880   3.3309690
  25.9323960  26.3088400   2.9851710  26.0218750  22.7693700   2.5627460
  26.4781530  23.5798950   2.7887650  25.6706960  22.4516840   3.3945950
  28.3251360  28.2800040   9.7919760  28.9693580  28.4859420  10.4693180
  28.6880800  27.5188440   9.3390610  21.9230530  13.1131350   3.0349980
  21.7945160  13.1049250   3.9834900  21.0992550  13.4514440   2.6840990
  29.5983440  26.2832390   8.5097210  30.2405670  25.5825550   8.6229380
  30.1232790  27.0630830   8.3294100  31.3721060  27.0827290  11.7133270
  31.7077300  27.6693980  12.3911190  30.4521400  26.9520000  11.9431060
  18.9224460  14.8722470  12.4956680  18.2082980  15.0719390  13.1009290
  19.3419500  14.0962040  12.8671480  19.2097050  28.8602730  13.4823210
  19.3188170  27.9197470  13.3418600  18.5577610  29.1257480  12.8336940
  27.2009640  27.1318620  14.8821330  26.8806510  26.4127860  15.4267020
  26.5268000  27.8073690  14.9557390  30.4163240  17.3644780  10.2458130
  30.7844060  16.5439990  10.5737700  29.5561440  17.4246670  10.6613780
  25.7509300  18.5987670   2.4703570  25.0425450  19.0674010   2.9117180
  26.0353780  17.9409680   3.1048760  27.3765230  20.0184370  10.4696100
  27.8750480  20.4930190  11.1347950  27.5188180  19.0947890  10.6766130
  29.7824730  15.3238330   3.9099360  29.6592510  15.3424460   2.9608870
  30.7309290  15.3717270   4.0297760  26.8701520  30.5593630   3.1827340
  27.1243020  30.5215020   2.2606710  25.9214000  30.4326960   3.1755590
  34.5832090  16.2352330  11.3124490  34.0805690  16.9757730  11.6518300
  35.3988750  16.6236330  10.9961280  32.8754100  21.4785510   4.7585850
  31.9344240  21.4935740   4.9333540  33.1898170  20.6921470   5.2046150
  34.8779680  28.6494360   6.4340110  35.0027100  29.4725530   6.9063920
  35.7445240  28.4385090   6.0864260  22.3497210  30.7425570   6.1057240
  23.0859690  30.1941030   6.3765810  22.7338130  31.6081580   5.9663230
  19.2342690  26.8099140   1.9798750  18.3082470  27.0520280   1.9704160
  19.6999120  27.6373400   1.8583500  21.3555490  29.9271640  15.2942820
  22.1568220  30.2483690  15.7078220  20.8407310  29.5667220  16.0162730
  30.1920120  26.0351510  15.2418230  29.5858280  26.0583110  14.5013980
  29.8874230  25.3034550  15.7785480  31.6220490  29.7631800  13.8527640
  32.5742240  29.6789820  13.8027880  31.4748710  30.4273510  14.5261430
  19.0753300  22.4145100  14.2378870  19.5792320  21.8352380  14.8095100
  18.3360720  22.6985330  14.7755240  26.1291240  23.8216090  13.7714390
  25.3636910  24.3901090  13.6869060  26.3107200  23.5292300  12.8782620
  33.2714590  25.5521420  14.3289410  34.0124060  25.8897180  13.8256870
  32.5087270  25.7213480  13.7759180  21.1076380  20.5574690  15.1328940
  21.1481720  20.2588560  16.0414170  21.9621880  20.9582300  14.9736460
  23.0482190  19.1366790  13.1003430  22.5178650  18.6457740  12.4726770
  23.7170260  19.5650990  12.5661360  31.9460250  23.6036250  12.8644620
  32.3601270  23.7581330  13.7135040  31.0111250  23.7291470  13.0270400
  32.4182420  20.9432410  14.8683770  33.0003190  20.1884730  14.7804250
  32.5944190  21.4739850  14.0915250  23.5354490  16.1029160  13.1800720
  23.4411360  15.4849910  12.4551590  22.9551880  16.8295450  12.9530630
  26.3015930  14.6602400  10.2128110  25.8533230  14.6826660   9.3673660
  25.6681130  14.2621420  10.8098410  26.7075480  23.5556730  10.8340550
  27.1263590  24.3989460  10.6616790  25.7884110  23.6928770  10.6047330
  29.0439380  21.2872910  12.2178390  29.1635590  20.6914050  12.9573230
  29.9033380  21.3242600  11.7979690  31.3827280  21.8410100  10.7940900
  30.8562500  22.3652720  10.1906040  31.7258620  22.4737490  11.4250630
  24.5582900  29.8609740  11.9498280  24.0203990  30.5855800  11.6306980
  24.8116860  29.3840080  11.1595620  25.8108150  17.8294260  13.4754210
  26.4007840  17.5210110  14.1632030  24.9928390  17.3574010  13.6314110
  30.6301580  17.4460070  13.7087230  29.9417100  16.7841610  13.6437220
  31.3507600  16.9998340  14.1535690  27.4145110  31.0960950  12.2084930
  27.3403810  31.9996090  12.5157300  26.5123950  30.7772850  12.1807000
  18.8172400  28.4235540   5.5118550  19.1475410  27.5556600   5.2797190
  19.2463400  28.6294060   6.3423510  23.4134320  26.7544550   3.1720520
  23.1129860  26.6309520   4.0724430  23.3071810  25.8953140   2.7636250
  19.3062610  29.2906130   8.2500180  18.8693600  29.4706930   9.0824330
  19.8740290  30.0480750   8.1081900  34.9424790  28.7923130  12.5377490
  34.3426780  28.8515690  11.7941410  35.0718690  27.8528110  12.6674340
  19.1387040  21.8026360   4.6089060  18.4835880  21.5338000   3.9648760
  19.9764990  21.6930840   4.1591040  36.6442670  24.1338530   5.2223330
  37.0151500  23.3505850   4.8159300  37.2844600  24.8227630   5.0440630
  33.6276430  25.5175110  10.6353650  32.8136270  25.9472270  10.8979440
  34.0350630  26.1293520  10.0222700  35.5867210  21.5091790   2.5283350
  35.2110810  20.7419720   2.0964640  34.8570330  21.8914490   3.0158280
  20.1762970  22.1878930   9.1492400  20.5436010  22.1006330  10.0288420
  19.6073790  21.4245480   9.0499260  34.9766830  20.6563310  12.1622870
  34.7452920  20.4276060  11.2620820  35.2371380  21.5762860  12.1167760
  19.7278970  19.0988020  13.0550820  18.8335020  19.0654780  13.3944530
  20.2676520  19.2974810  13.8202070  33.4154900  15.8819740  14.9402570
  34.2925080  15.8903140  15.3236570  33.4275740  15.1450580  14.3294920
  34.8618170  19.7349280   5.8290590  35.3855650  19.2411930   5.1980760
  35.4477590  19.8699640   6.5738160  35.0407890  19.8189150   9.3510140
  34.0910600  19.7852690   9.4655130  35.2220900  20.7289260   9.1159910
  34.3518140  18.9922630   1.7683000  34.8477260  18.7593500   2.5531880
  34.1534210  18.1534470   1.3520640  20.2318680  13.3736350   7.4034040
  20.8794870  12.8233730   6.9629200  20.6520520  13.6279500   8.2249850
  35.7805300  17.6283580   4.3020680  35.6704580  17.4739620   5.2402950
  36.5412890  17.1004520   4.0596090  34.1271020  13.5677710  10.7603680
  34.7643240  14.1811850  11.1262870  34.2745910  13.6038370   9.8152910
  33.6852480  30.2693710   4.1621920  34.2811550  29.9478280   3.4856340
  33.9430630  29.7965530   4.9535190  19.9850680  13.5292020  10.1459360
  19.6365500  13.9855840  10.9117540  19.6538380  12.6349150  10.2281790
  21.5915050  26.7011620  14.3112550  21.5484680  26.3304530  15.1927010
  21.7226060  27.6389190  14.4514370  25.2921080  28.2571210   9.9122270
  25.0512440  28.5245770   9.0252790  26.2323720  28.4276940   9.9673130
  27.4975500  14.7203900  13.6678780  27.4364390  15.3125730  14.4174190
  28.4375880  14.6129860  13.5229040  30.1350060  14.3773960  13.3071070
  30.7490470  14.6953250  12.6452150  30.6799620  13.8922550  13.9266930
  36.5525240  30.2765590  10.7132910  36.0583520  30.6734460   9.9960040
  35.9438530  29.6514800  11.1070190  20.6571320  13.0568220  13.4210130
  21.2054310  12.8756270  12.6576240  20.7226630  12.2662330  13.9566440
  21.4303080  29.6473870  11.4310330  20.8363400  29.5158570  12.1700370
  21.4226920  28.8112010  10.9652430  30.8758100  12.9406100   9.6340360
  30.0017940  13.2741210   9.4313290  30.7668850  12.4679280  10.4592230
  31.7830080  15.1476970  11.0182080  31.4543440  14.3328730  10.6383810
  32.7312380  15.1046780  10.8947770  34.2364690  30.9189010   7.9919650
  33.7767660  31.6704820   7.6177670  33.6077150  30.1995480   7.9334450
  21.0615310  27.0132250  10.3818370  20.3349370  26.3937540  10.3144320
  21.1224460  27.4072860   9.5116450  24.6660410  29.2277250   7.1667780
  25.1825430  28.6164610   6.6416040  25.3157790  29.7306030   7.6578790
  27.4055910  30.1185740   7.9936760  27.6933720  29.8640040   7.1169770
  27.9179130  29.5663100   8.5842330  28.6232920  13.8575940   8.5733270
  27.8404710  14.3321440   8.8530030  28.3295850  12.9530770   8.4646450
  33.1753990  14.5599040   6.6182360  33.6162080  14.5044140   5.7703960
  32.9061580  15.4757050   6.6892540  35.0392560  14.1914280   4.6291180
  34.9780960  13.2475500   4.4822200  35.8184590  14.2994370   5.1744640
  19.3445310  30.3306640   3.5915130  19.1767350  29.6977320   4.2897020
  18.4779820  30.5366040   3.2409320  26.5087140  16.2762690   4.0849300
  25.6961650  15.9019580   3.7445180  27.0128780  15.5207770   4.3870490
  31.0112120  12.9405140   5.3232370  31.6141490  13.5125350   5.7980890
  30.2705110  13.5044580   5.1006270  24.5336320  14.4262610   2.6894350
  23.9039060  13.7249920   2.8564480  23.9941460  15.1866740   2.4727510
  27.4728270  31.0401840  15.3604960  28.3995580  30.8046110  15.4040920
  27.4578700  31.8673840  14.8790990  35.7073330  30.5827410   2.3579210
  35.8825520  29.8965150   1.7140130  35.0094900  31.1074460   1.9655880
  24.6591880  13.7046590  15.1246840  24.3776150  14.2080190  14.3607660
  25.0411580  12.9068340  14.7588970  31.2607340  13.1200170  15.7027310
  31.1472790  13.4394780  16.5978830  32.0777080  13.5212680  15.4064590
  34.0405830  30.2671700  15.1846000  34.8331150  29.7720930  14.9771960
  34.3338980  30.9461840  15.7921610  28.2983530   4.1428170  63.0445280
  27.5225630   3.6628610  63.3343850  28.9496460   3.4633820  62.8701440
  22.3149360   4.4547980  63.9221040  21.4834240   4.1996690  64.3217550
  22.9230340   4.5258750  64.6578960  32.3190960   8.5488360  61.8244410
  31.8572490   7.7775600  62.1531580  33.1316510   8.5754430  62.3296860
  22.2950620   8.4888070  64.1179060  22.5978660   7.5985810  63.9389280
  23.0394210   9.0458290  63.8901310  28.5454270  10.8346370  61.4448400
  27.9265710  11.2903870  60.8742840  29.4006050  10.9897830  61.0438100
  27.7392520   6.8185360  63.0515440  27.6700800   5.8775300  62.8904570
  28.5012380   6.9086770  63.6238010  29.4117620   5.7185610  58.8380310
  28.7934890   6.1835060  58.2743030  29.9240870   6.4113090  59.2549820
  24.2749380   5.2461480  65.5163910  23.9418760   5.8730400  66.1584980
  24.4516060   5.7723360  64.7365580  23.4868480   7.2142280  67.3313090
  24.1042480   7.8893360  67.0497540  22.6261600   7.6230260  67.2400590
  18.7800820   6.4042140  56.2119940  18.4028800   6.8929240  55.4804840
  19.0373890   7.0767420  56.8426470  34.4046070   8.6781690  65.2467730
  33.7209590   9.3480800  65.2384400  34.9440360   8.8762340  64.4812590
  31.9404810  10.5225820  63.9612910  31.9531970  10.1188110  63.0935170
  31.3880030  11.2973110  63.8574340  33.2350230   7.2442040  59.0503080
  33.1246560   6.3016370  59.1752500  33.2318480   7.6057680  59.9365840
  31.3390250   5.4255660  65.2895520  31.7559040   5.2115770  64.4548980
  32.0630070   5.6828450  65.8604140  28.7770510   2.8707360  58.4065570
  27.8499790   2.8044740  58.6354040  28.9295330   3.8087490  58.2920810
  35.2852350   3.8242880  65.3811760  34.4570980   3.8935970  64.9061890
  35.8802830   4.4097190  64.9127590  32.8067800   4.4327660  58.9100820
  32.1880220   4.0947210  58.2627120  32.7892250   3.7887420  59.6180010
  24.3827150   3.3972100  61.1885300  23.9784150   2.6849350  60.6931200
  24.4690270   3.0525340  62.0773340  24.8508850   7.0839660  63.3524510
  24.5537140   6.4785130  62.6732290  25.8008670   7.1216970  63.2413870
  32.9394460  10.6571530  67.0147610  32.4625020  11.4643720  66.8220220
  32.2556250  10.0049860  67.1673820  30.9832500   3.6714470  55.9173570
  31.4225780   2.8336900  55.7711390  31.6960920   4.3043870  56.0037710
  29.0927880   8.6110540  59.8854810  29.5323790   9.3534870  59.4710200
  29.0314770   8.8537110  60.8093770  21.0831780   2.2917080  58.6891950
  20.9629380   3.0179170  58.0773220  20.7732670   1.5219990  58.2119860
  18.7217150   5.4632220  64.4960590  18.7997570   5.5980990  63.5516310
  19.3358830   4.7548110  64.6888710  19.9664780   7.1632410  60.9066770
  19.5592860   7.3047000  60.0520370  20.8577790   6.8792570  60.7037980
  31.7598060  11.5979660  57.2417820  31.5999200  11.3082600  58.1399650
  31.5944770  10.8219790  56.7063050  24.2386440  11.3778190  59.0189440
  24.0628920  10.4613730  58.8057240  23.3842180  11.7365480  59.2587240
  31.4624190   9.1067220  55.8015820  30.7689350   9.1044510  55.1418100
  32.2047050   8.6826540  55.3709990  31.0274120  10.7329930  59.8764310
  31.4831070   9.9519310  60.1902930  31.3666640  11.4436750  60.4205490
  18.7776670   6.5046390  67.0355050  18.9407710   6.0351750  66.2174420
  19.2429120   5.9969950  67.7003890  25.2746470   1.9785800  55.3184130
  24.7063370   1.5304050  54.6920040  25.9835470   2.3378580  54.7849280
  26.5012790   2.7274360  64.6759480  26.8682920   2.2532930  65.4220820
  26.3117850   3.6015930  65.0167820  24.2912160   1.7683000  66.9943690
  23.9869230   2.6474980  67.2194050  25.2458620   1.8282790  67.0301130
  22.8193950   5.9743990  57.5910540  22.0456210   5.4341610  57.4309260
  23.5488580   5.4550600  57.2528300  33.5781930   4.9709350  63.3836930
  34.2981050   5.4664640  62.9933040  33.3763750   4.2927240  62.7390800
  22.8631350   5.6424370  61.2289350  23.3810020   4.8392630  61.1746240
  22.4115370   5.5803510  62.0706180  27.7500850   6.9090650  56.5016650
  28.0916550   7.6532880  56.0059970  26.9213560   7.2221770  56.8641480
  34.0254530   2.0478800  55.2908340  33.9418250   2.4793020  54.4404780
  34.7448720   2.5077150  55.7235160  35.0541780   8.9021060  58.0190470
  34.4117940   8.2476680  58.2934190  34.6672440   9.3076150  57.2431140
  30.6328260   6.2306490  61.8662160  30.9852080   5.6334620  61.2063530
  29.7490590   5.9050720  62.0370410  26.7191540   6.9904180  59.2732570
  27.4062670   7.5373390  59.6540160  25.9323960   7.5344910  59.3082180
  18.8583940   2.6077000  54.7649650  19.7278790   2.8901800  55.0485570
  18.3674260   3.4212870  54.6498460  26.0218750   3.9950210  58.8857930
  26.4781530   4.8055460  59.1118120  25.6706960   3.6773350  59.7176420
  28.3251360   9.5056550  66.1150230  28.9693580   9.7115930  66.7923650
  28.6880800   8.7444950  65.6621080  29.5983440   7.5088900  64.8327680
  30.2405670   6.8082060  64.9459850  30.1232790   8.2887340  64.6524570
  33.4439160   7.7937520  54.5566820  33.2176740   7.0767960  55.1491460
  33.0535360   7.5449960  53.7188570  19.2255190  11.8204380  55.3311280
  19.5852830  12.4193720  54.6768550  19.0847530  12.3664270  56.1046310
  33.0255410   5.7109460  56.2180980  32.7377110   6.1722150  57.0058860
  33.8207580   5.2507230  56.4865200  25.2423810   9.2035580  56.1484950
  25.2333910   9.9365270  55.5329460  24.3222170   8.9567160  56.2411910
  20.8430450   4.4250470  56.8931710  20.2358400   5.1649370  56.9027010
  21.3179800   4.5149830  56.0669910  28.2283410   9.2663820  54.8110140
  28.3295390   9.0627810  53.8812120  27.3285150   9.0122100  55.0157920
  26.8701520  11.7850140  59.5057810  27.1243020  11.7471530  58.5837180
  25.9214000  11.6583470  59.4986060  32.8754100   2.7042020  61.0816320
  31.9344240   2.7192250  61.2564010  33.1898170   1.9177980  61.5276620
  22.8535740   4.3861620  54.6420280  23.6199010   4.2742980  55.2045710
  22.9310430   3.6899590  53.9897050  34.8779680   9.8750870  62.7570580
  35.0027100  10.6982040  63.2294390  35.7445240   9.6641600  62.4094730
  22.3497210  11.9682080  62.4287710  23.0859690  11.4197540  62.6996280
  22.7338130  12.8338090  62.2893700  19.2342690   8.0355650  58.3029220
  18.3082470   8.2776790  58.2934630  19.6999120   8.8629910  58.1813970
  25.4599520  11.1412390  54.2513280  26.2528130  11.4301220  53.7995070
  24.9403870  10.7104560  53.5725760  34.5129690  10.3682520  55.6750020
  34.2271200   9.9547660  54.8604200  34.3149240  11.2970230  55.5550540
  25.9776920   6.3615800  54.1155630  25.8727560   5.7468150  54.8417010
  25.8101140   5.8381690  53.3318640  29.2179650   5.4235830  54.7197620
  28.6689750   5.8705130  55.3640360  29.8398910   4.9185080  55.2435290
  24.8854770   4.3826750  56.6162920  25.3071190   4.2166620  57.4594310
  25.0105610   3.5726980  56.1218060  27.3982410   3.4064360  53.8640020
  27.9188070   2.6913380  53.4981170  28.0450810   4.0450230  54.1640530
  26.7075480   4.7813240  67.1571020  27.1263590   5.6245970  66.9847260
  25.7884110   4.9185280  66.9277800  31.3827280   3.0666610  67.1171370
  30.8562500   3.5909230  66.5136510  31.7258620   3.6994000  67.7481100
  27.9630440  11.4875970  56.1541760  28.8581230  11.8260940  56.1760520
  27.9948070  10.7655380  55.5266040  21.6026600   6.8603020  54.3828760
  22.0401470   7.4032690  55.0386340  22.0874330   6.0349970  54.3925100
  18.8172400   9.6492050  61.8349020  19.1475410   8.7813110  61.6027660
  19.2463400   9.8550570  62.6653980  23.4134320   7.9801060  59.4950990
  23.1129860   7.8566030  60.3954900  23.3071810   7.1209650  59.0866720
  19.3062610  10.5162640  64.5730650  18.8693600  10.6963440  65.4054800
  19.8740290  11.2737260  64.4312370  36.1826240   7.7597460  54.1977670
  35.3519200   7.8274110  54.6684900  36.3598070   8.6501580  53.8944530
  35.6382700   4.5044940  56.7011870  36.4001610   5.0741590  56.8071560
  35.6537070   3.9372140  57.4720180  19.1387040   3.0282870  60.9319530
  18.4835880   2.7594510  60.2879230  19.9764990   2.9187350  60.4821510
  36.6442670   5.3595040  61.5453800  37.0151500   4.5762360  61.1389770
  37.2844600   6.0484140  61.3671100  33.6276430   6.7431620  66.9584120
  32.8136270   7.1728780  67.2209910  34.0350630   7.3550030  66.3453170
  35.6901870   4.7979310  53.8584390  35.9650710   5.7058190  53.7303610
  35.5012610   4.7341840  54.7946380  35.5867210   2.7348300  58.8513820
  35.2110810   1.9676230  58.4195110  34.8570330   3.1171000  59.3388750
  20.1762970   3.4135440  65.4722870  20.5436010   3.3262840  66.3518890
  19.6073790   2.6501990  65.3729730  33.6852480  11.4950220  60.4852390
  34.2811550  11.1734790  59.8086810  33.9430630  11.0222040  61.2765660
  25.2921080   9.4827720  66.2352740  25.0512440   9.7502280  65.3483260
  26.2323720   9.6533450  66.2903600  36.5525240  11.5022100  67.0363380
  36.0583520  11.8990970  66.3190510  35.9438530  10.8771310  67.4300660
  34.2364690  12.1445520  64.3150120  33.7767660  12.8961330  63.9408140
  33.6077150  11.4251990  64.2564920  21.0615310   8.2388760  66.7048840
  20.3349370   7.6194050  66.6374790  21.1224460   8.6329370  65.8346920
  24.6660410  10.4533760  63.4898250  25.1825430   9.8421120  62.9646510
  25.3157790  10.9562540  63.9809260  27.4055910  11.3442250  64.3167230
  27.6933720  11.0896550  63.4400240  27.9179130  10.7919610  64.9072800
  19.3445310  11.5563150  59.9145600  19.1767350  10.9233830  60.6127490
  18.4779820  11.7622550  59.5639790  20.9508010  10.2496380  57.3595740
  20.4255630  10.6304410  56.6557700  20.8752590  10.8747150  58.0805450
  35.7073330  11.8083920  58.6809680  35.8825520  11.1221660  58.0370600
  35.0094900  12.3330970  58.2886350  23.5500980  12.1978760  56.2344990
  24.2819800  11.9138040  55.6868880  23.8094650  11.9592040  57.1244370
  22.7115770   8.3143490  56.2391320  22.0824650   8.7828590  56.7877150
  22.8263600   7.4692710  56.6737510  28.2983530   4.1428170  44.2701790
  27.5225630   3.6628610  44.5600360  28.9496460   3.4633820  44.0957950
  22.3149360   4.4547980  45.1477550  21.4834240   4.1996690  45.5474060
  22.9230340   4.5258750  45.8835470  32.3190960   8.5488360  43.0500920
  31.8572490   7.7775600  43.3788090  33.1316510   8.5754430  43.5553370
  22.2950620   8.4888070  45.3435570  22.5978660   7.5985810  45.1645790
  23.0394210   9.0458290  45.1157820  28.5454270  10.8346370  42.6704910
  27.9265710  11.2903870  42.0999350  29.4006050  10.9897830  42.2694610
  27.7392520   6.8185360  44.2771950  27.6700800   5.8775300  44.1161080
  28.5012380   6.9086770  44.8494520  29.4117620   5.7185610  40.0636820
  28.7934890   6.1835060  39.4999540  29.9240870   6.4113090  40.4806330
  24.2749380   5.2461480  46.7420420  23.9418760   5.8730400  47.3841490
  24.4516060   5.7723360  45.9622090  23.4868480   7.2142280  48.5569600
  24.1042480   7.8893360  48.2754050  22.6261600   7.6230260  48.4657100
  18.7800820   6.4042140  37.4376450  18.4028800   6.8929240  36.7061350
  19.0373890   7.0767420  38.0682980  34.4046070   8.6781690  46.4724240
  33.7209590   9.3480800  46.4640910  34.9440360   8.8762340  45.7069100
  31.9404810  10.5225820  45.1869420  31.9531970  10.1188110  44.3191680
  31.3880030  11.2973110  45.0830850  33.2350230   7.2442040  40.2759590
  33.1246560   6.3016370  40.4009010  33.2318480   7.6057680  41.1622350
  31.3390250   5.4255660  46.5152030  31.7559040   5.2115770  45.6805490
  32.0630070   5.6828450  47.0860650  28.7770510   2.8707360  39.6322080
  27.8499790   2.8044740  39.8610550  28.9295330   3.8087490  39.5177320
  35.2852350   3.8242880  46.6068270  34.4570980   3.8935970  46.1318400
  35.8802830   4.4097190  46.1384100  32.8067800   4.4327660  40.1357330
  32.1880220   4.0947210  39.4883630  32.7892250   3.7887420  40.8436520
  24.3827150   3.3972100  42.4141810  23.9784150   2.6849350  41.9187710
  24.4690270   3.0525340  43.3029850  24.8508850   7.0839660  44.5781020
  24.5537140   6.4785130  43.8988800  25.8008670   7.1216970  44.4670380
  32.9394460  10.6571530  48.2404120  32.4625020  11.4643720  48.0476730
  32.2556250  10.0049860  48.3930330  23.9427280   6.8221350  51.2288820
  23.0455810   7.0461320  51.4762220  23.9680150   6.9456290  50.2800220
  30.9832500   3.6714470  37.1430080  31.4225780   2.8336900  36.9967900
  31.6960920   4.3043870  37.2294220  22.7698500   3.6934670  49.8046190
  22.6306270   4.5657470  50.1733590  21.8879860   3.3507480  49.6594130
  29.0927880   8.6110540  41.1111320  29.5323790   9.3534870  40.6966710
  29.0314770   8.8537110  42.0350280  24.5678850   9.6356370  52.0131340
  24.5394280  10.0399320  51.1459770  24.4043820   8.7066730  51.8502940
  21.0831780   2.2917080  39.9148460  20.9629380   3.0179170  39.3029730
  20.7732670   1.5219990  39.4376370  36.5193670  10.4183470  53.3095510
  36.9953390  10.8966360  53.9884590  37.1400830  10.3500960  52.5841010
  18.7217150   5.4632220  45.7217100  18.7997570   5.5980990  44.7772820
  19.3358830   4.7548110  45.9145220  19.9664780   7.1632410  42.1323280
  19.5592860   7.3047000  41.2776880  20.8577790   6.8792570  41.9294490
  35.9226920   7.6096320  50.4695520  36.0489980   7.3708200  49.5512700
  35.9648300   6.7780860  50.9417600  29.7843660  11.3124320  49.0390330
  30.2988330  11.2232330  49.8412760  28.9412740  11.6584020  49.3318240
  31.7598060  11.5979660  38.4674330  31.5999200  11.3082600  39.3656160
  31.5944770  10.8219790  37.9319560  24.2386440  11.3778190  40.2445950
  24.0628920  10.4613730  40.0313750  23.3842180  11.7365480  40.4843750
  31.4624190   9.1067220  37.0272330  30.7689350   9.1044510  36.3674610
  32.2047050   8.6826540  36.5966500  31.0274120  10.7329930  41.1020820
  31.4831070   9.9519310  41.4159440  31.3666640  11.4436750  41.6462000
  18.7776670   6.5046390  48.2611560  18.9407710   6.0351750  47.4430930
  19.2429120   5.9969950  48.9260400  25.2746470   1.9785800  36.5440640
  24.7063370   1.5304050  35.9176550  25.9835470   2.3378580  36.0105790
  20.3515650   5.8797820  50.4207370  19.9670440   5.2391490  51.0190330
  20.6627840   6.5833940  50.9902100  26.5012790   2.7274360  45.9015990
  26.8682920   2.2532930  46.6477330  26.3117850   3.6015930  46.2424330
  24.2912160   1.7683000  48.2200200  23.9869230   2.6474980  48.4450560
  25.2458620   1.8282790  48.2557640  22.8193950   5.9743990  38.8167050
  22.0456210   5.4341610  38.6565770  23.5488580   5.4550600  38.4784810
  33.5781930   4.9709350  44.6093440  34.2981050   5.4664640  44.2189550
  33.3763750   4.2927240  43.9647310  28.9600730   5.0418410  50.4962440
  28.8938040   4.1214080  50.2420030  28.3305870   5.1393850  51.2107080
  22.8631350   5.6424370  42.4545860  23.3810020   4.8392630  42.4002750
  22.4115370   5.5803510  43.2962690  27.7500850   6.9090650  37.7273160
  28.0916550   7.6532880  37.2316480  26.9213560   7.2221770  38.0897990
  20.3475890   2.6085740  49.3671560  19.9890830   3.2739590  49.9544900
  20.0530450   1.7769290  49.7384180  23.5489010   3.0669980  52.2511110
  23.2489150   3.2127160  51.3538930  24.3200250   2.5075270  52.1584500
  28.8917460   7.8638980  50.2466240  28.9062000   6.9319940  50.0285150
  28.1842560   7.9498740  50.8856010  34.0254530   2.0478800  36.5164850
  33.9418250   2.4793020  35.6661290  34.7448720   2.5077150  36.9491670
  35.1028670   4.5046320  49.5934820  34.3776860   5.0975100  49.3964210
  35.6304130   4.4969860  48.7948190  35.0541780   8.9021060  39.2446980
  34.4117940   8.2476680  39.5190700  34.6672440   9.3076150  38.4687650
  30.6328260   6.2306490  43.0918670  30.9852080   5.6334620  42.4320040
  29.7490590   5.9050720  43.2626920  26.7191540   6.9904180  40.4989080
  27.4062670   7.5373390  40.8796670  25.9323960   7.5344910  40.5338690
  18.8583940   2.6077000  35.9906160  19.7278790   2.8901800  36.2742080
  18.3674260   3.4212870  35.8754970  26.0218750   3.9950210  40.1114440
  26.4781530   4.8055460  40.3374630  25.6706960   3.6773350  40.9432930
  28.3251360   9.5056550  47.3406740  28.9693580   9.7115930  48.0180160
  28.6880800   8.7444950  46.8877590  29.5983440   7.5088900  46.0584190
  30.2405670   6.8082060  46.1716360  30.1232790   8.2887340  45.8781080
  33.4439160   7.7937520  35.7823330  33.2176740   7.0767960  36.3747970
  33.0535360   7.5449960  34.9445080  31.3721060   8.3083800  49.2620250
  31.7077300   8.8950490  49.9398170  30.4521400   8.1776510  49.4918040
  19.2255190  11.8204380  36.5567790  19.5852830  12.4193720  35.9025060
  19.0847530  12.3664270  37.3302820  33.0255410   5.7109460  37.4437490
  32.7377110   6.1722150  38.2315370  33.8207580   5.2507230  37.7121710
  19.2097050  10.0859240  51.0310190  19.3188170   9.1453980  50.8905580
  18.5577610  10.3513990  50.3823920  27.2009640   8.3575130  52.4308310
  26.8806510   7.6384370  52.9754000  26.5268000   9.0330200  52.5044370
  25.2423810   9.2035580  37.3741460  25.2333910   9.9365270  36.7585970
  24.3222170   8.9567160  37.4668420  20.8430450   4.4250470  38.1188220
  20.2358400   5.1649370  38.1283520  21.3179800   4.5149830  37.2926420
  28.2283410   9.2663820  36.0366650  28.3295390   9.0627810  35.1068630
  27.3285150   9.0122100  36.2414430  26.8701520  11.7850140  40.7314320
  27.1243020  11.7471530  39.8093690  25.9214000  11.6583470  40.7242570
  32.8754100   2.7042020  42.3072830  31.9344240   2.7192250  42.4820520
  33.1898170   1.9177980  42.7533130  22.8535740   4.3861620  35.8676790
  23.6199010   4.2742980  36.4302220  22.9310430   3.6899590  35.2153560
  34.8779680   9.8750870  43.9827090  35.0027100  10.6982040  44.4550900
  35.7445240   9.6641600  43.6351240  22.3497210  11.9682080  43.6544220
  23.0859690  11.4197540  43.9252790  22.7338130  12.8338090  43.5150210
  19.2342690   8.0355650  39.5285730  18.3082470   8.2776790  39.5191140
  19.6999120   8.8629910  39.4070480  21.3555490  11.1528150  52.8429800
  22.1568220  11.4740200  53.2565200  20.8407310  10.7923730  53.5649710
  25.4599520  11.1412390  35.4769790  26.2528130  11.4301220  35.0251580
  24.9403870  10.7104560  34.7982270  30.1920120   7.2608020  52.7905210
  29.5858280   7.2839620  52.0500960  29.8874230   6.5291060  53.3272460
  31.6220490  10.9888310  51.4014620  32.5742240  10.9046330  51.3514860
  31.4748710  11.6530020  52.0748410  34.5129690  10.3682520  36.9006530
  34.2271200   9.9547660  36.0860710  34.3149240  11.2970230  36.7807050
  19.0753300   3.6401610  51.7865850  19.5792320   3.0608890  52.3582080
  18.3360720   3.9241840  52.3242220  25.9776920   6.3615800  35.3412140
  25.8727560   5.7468150  36.0673520  25.8101140   5.8381690  34.5575150
  26.1291240   5.0472600  51.3201370  25.3636910   5.6157600  51.2356040
  26.3107200   4.7548810  50.4269600  29.2179650   5.4235830  35.9454130
  28.6689750   5.8705130  36.5896870  29.8398910   4.9185080  36.4691800
  33.2714590   6.7777930  51.8776390  34.0124060   7.1153690  51.3743850
  32.5087270   6.9469990  51.3246160  21.1076380   1.7831200  52.6815920
  21.1481720   1.4845070  53.5901150  21.9621880   2.1838810  52.5223440
  24.8854770   4.3826750  37.8419430  25.3071190   4.2166620  38.6850820
  25.0105610   3.5726980  37.3474570  27.3982410   3.4064360  35.0896530
  27.9188070   2.6913380  34.7237680  28.0450810   4.0450230  35.3897040
  31.9460250   4.8292760  50.4131600  32.3601270   4.9837840  51.2622020
  31.0111250   4.9547980  50.5757380  26.7075480   4.7813240  48.3827530
  27.1263590   5.6245970  48.2103770  25.7884110   4.9185280  48.1534310
  29.0439380   2.5129420  49.7665370  29.1635590   1.9170560  50.5060210
  29.9033380   2.5499110  49.3466670  31.3827280   3.0666610  48.3427880
  30.8562500   3.5909230  47.7393020  31.7258620   3.6994000  48.9737610
  24.5582900  11.0866250  49.4985260  24.0203990  11.8112310  49.1793960
  24.8116860  10.6096590  48.7082600  27.4145110  12.3217460  49.7571910
  27.3403810  13.2252600  50.0644280  26.5123950  12.0029360  49.7293980
  27.9630440  11.4875970  37.3798270  28.8581230  11.8260940  37.4017030
  27.9948070  10.7655380  36.7522550  21.6026600   6.8603020  35.6085270
  22.0401470   7.4032690  36.2642850  22.0874330   6.0349970  35.6181610
  18.8172400   9.6492050  43.0605530  19.1475410   8.7813110  42.8284170
  19.2463400   9.8550570  43.8910490  23.4134320   7.9801060  40.7207500
  23.1129860   7.8566030  41.6211410  23.3071810   7.1209650  40.3123230
  19.3062610  10.5162640  45.7987160  18.8693600  10.6963440  46.6311310
  19.8740290  11.2737260  45.6568880  34.9424790  10.0179640  50.0864470
  34.3426780  10.0772200  49.3428390  35.0718690   9.0784620  50.2161320
  36.1826240   7.7597460  35.4234180  35.3519200   7.8274110  35.8941410
  36.3598070   8.6501580  35.1201040  35.6382700   4.5044940  37.9268380
  36.4001610   5.0741590  38.0328070  35.6537070   3.9372140  38.6976690
  19.1387040   3.0282870  42.1576040  18.4835880   2.7594510  41.5135740
  19.9764990   2.9187350  41.7078020  36.6442670   5.3595040  42.7710310
  37.0151500   4.5762360  42.3646280  37.2844600   6.0484140  42.5927610
  33.6276430   6.7431620  48.1840630  32.8136270   7.1728780  48.4466420
  34.0350630   7.3550030  47.5709680  35.6901870   4.7979310  35.0840900
  35.9650710   5.7058190  34.9560120  35.5012610   4.7341840  36.0202890
  35.5867210   2.7348300  40.0770330  35.2110810   1.9676230  39.6451620
  34.8570330   3.1171000  40.5645260  20.1762970   3.4135440  46.6979380
  20.5436010   3.3262840  47.5775400  19.6073790   2.6501990  46.5986240
  34.9766830   1.8819820  49.7109850  34.7452920   1.6532570  48.8107800
  35.2371380   2.8019370  49.6654740  33.6852480  11.4950220  41.7108900
  34.2811550  11.1734790  41.0343320  33.9430630  11.0222040  42.5022170
  21.5915050   7.9268130  51.8599530  21.5484680   7.5561040  52.7413990
  21.7226060   8.8645700  52.0001350  25.2921080   9.4827720  47.4609250
  25.0512440   9.7502280  46.5739770  26.2323720   9.6533450  47.5160110
  36.5525240  11.5022100  48.2619890  36.0583520  11.8990970  47.5447020
  35.9438530  10.8771310  48.6557170  21.4303080  10.8730380  48.9797310
  20.8363400  10.7415080  49.7187350  21.4226920  10.0368520  48.5139410
  34.2364690  12.1445520  45.5406630  33.7767660  12.8961330  45.1664650
  33.6077150  11.4251990  45.4821430  21.0615310   8.2388760  47.9305350
  20.3349370   7.6194050  47.8631300  21.1224460   8.6329370  47.0603430
  24.6660410  10.4533760  44.7154760  25.1825430   9.8421120  44.1903020
  25.3157790  10.9562540  45.2065770  27.4055910  11.3442250  45.5423740
  27.6933720  11.0896550  44.6656750  27.9179130  10.7919610  46.1329310
  19.3445310  11.5563150  41.1402110  19.1767350  10.9233830  41.8384000
  18.4779820  11.7622550  40.7896300  20.9508010  10.2496380  38.5852250
  20.4255630  10.6304410  37.8814210  20.8752590  10.8747150  39.3061960
  27.4728270  12.2658350  52.9091940  28.3995580  12.0302620  52.9527900
  27.4578700  13.0930350  52.4277970  35.7073330  11.8083920  39.9066190
  35.8825520  11.1221660  39.2627110  35.0094900  12.3330970  39.5142860
  23.5500980  12.1978760  37.4601500  24.2819800  11.9138040  36.9125390
  23.8094650  11.9592040  38.3500880  22.7115770   8.3143490  37.4647830
  22.0824650   8.7828590  38.0133660  22.8263600   7.4692710  37.8994020
  34.0405830  11.4928210  52.7332980  34.8331150  10.9977440  52.5258940
  34.3338980  12.1718350  53.3408590  28.2983530   4.1428170  25.4958300
  27.5225630   3.6628610  25.7856870  28.9496460   3.4633820  25.3214460
  22.3149360   4.4547980  26.3734060  21.4834240   4.1996690  26.7730570
  22.9230340   4.5258750  27.1091980  32.3190960   8.5488360  24.2757430
  31.8572490   7.7775600  24.6044600  33.1316510   8.5754430  24.7809880
  22.2950620   8.4888070  26.5692080  22.5978660   7.5985810  26.3902300
  23.0394210   9.0458290  26.3414330  28.5454270  10.8346370  23.8961420
  27.9265710  11.2903870  23.3255860  29.4006050  10.9897830  23.4951120
  27.7392520   6.8185360  25.5028460  27.6700800   5.8775300  25.3417590
  28.5012380   6.9086770  26.0751030  29.4117620   5.7185610  21.2893330
  28.7934890   6.1835060  20.7256050  29.9240870   6.4113090  21.7062840
  24.2749380   5.2461480  27.9676930  23.9418760   5.8730400  28.6098000
  24.4516060   5.7723360  27.1878600  23.4868480   7.2142280  29.7826110
  24.1042480   7.8893360  29.5010560  22.6261600   7.6230260  29.6913610
  18.7800820   6.4042140  18.6632960  18.4028800   6.8929240  17.9317860
  19.0373890   7.0767420  19.2939490  34.4046070   8.6781690  27.6980750
  33.7209590   9.3480800  27.6897420  34.9440360   8.8762340  26.9325610
  31.9404810  10.5225820  26.4125930  31.9531970  10.1188110  25.5448190
  31.3880030  11.2973110  26.3087360  33.2350230   7.2442040  21.5016100
  33.1246560   6.3016370  21.6265520  33.2318480   7.6057680  22.3878860
  31.3390250   5.4255660  27.7408540  31.7559040   5.2115770  26.9062000
  32.0630070   5.6828450  28.3117160  28.7770510   2.8707360  20.8578590
  27.8499790   2.8044740  21.0867060  28.9295330   3.8087490  20.7433830
  35.2852350   3.8242880  27.8324780  34.4570980   3.8935970  27.3574910
  35.8802830   4.4097190  27.3640610  32.8067800   4.4327660  21.3613840
  32.1880220   4.0947210  20.7140140  32.7892250   3.7887420  22.0693030
  24.3827150   3.3972100  23.6398320  23.9784150   2.6849350  23.1444220
  24.4690270   3.0525340  24.5286360  24.8508850   7.0839660  25.8037530
  24.5537140   6.4785130  25.1245310  25.8008670   7.1216970  25.6926890
  32.9394460  10.6571530  29.4660630  32.4625020  11.4643720  29.2733240
  32.2556250  10.0049860  29.6186840  23.9427280   6.8221350  32.4545330
  23.0455810   7.0461320  32.7018730  23.9680150   6.9456290  31.5056730
  30.9832500   3.6714470  18.3686590  31.4225780   2.8336900  18.2224410
  31.6960920   4.3043870  18.4550730  22.7698500   3.6934670  31.0302700
  22.6306270   4.5657470  31.3990100  21.8879860   3.3507480  30.8850640
  29.0927880   8.6110540  22.3367830  29.5323790   9.3534870  21.9223220
  29.0314770   8.8537110  23.2606790  24.5678850   9.6356370  33.2387850
  24.5394280  10.0399320  32.3716280  24.4043820   8.7066730  33.0759450
  21.0831780   2.2917080  21.1404970  20.9629380   3.0179170  20.5286240
  20.7732670   1.5219990  20.6632880  36.5193670  10.4183470  34.5352020
  36.9953390  10.8966360  35.2141100  37.1400830  10.3500960  33.8097520
  18.7217150   5.4632220  26.9473610  18.7997570   5.5980990  26.0029330
  19.3358830   4.7548110  27.1401730  19.9664780   7.1632410  23.3579790
  19.5592860   7.3047000  22.5033390  20.8577790   6.8792570  23.1551000
  35.9226920   7.6096320  31.6952030  36.0489980   7.3708200  30.7769210
  35.9648300   6.7780860  32.1674110  29.7843660  11.3124320  30.2646840
  30.2988330  11.2232330  31.0669270  28.9412740  11.6584020  30.5574750
  31.7598060  11.5979660  19.6930840  31.5999200  11.3082600  20.5912670
  31.5944770  10.8219790  19.1576070  24.2386440  11.3778190  21.4702460
  24.0628920  10.4613730  21.2570260  23.3842180  11.7365480  21.7100260
  31.4624190   9.1067220  18.2528840  30.7689350   9.1044510  17.5931120
  32.2047050   8.6826540  17.8223010  31.0274120  10.7329930  22.3277330
  31.4831070   9.9519310  22.6415950  31.3666640  11.4436750  22.8718510
  18.7776670   6.5046390  29.4868070  18.9407710   6.0351750  28.6687440
  19.2429120   5.9969950  30.1516910  25.2746470   1.9785800  17.7697150
  24.7063370   1.5304050  17.1433060  25.9835470   2.3378580  17.2362300
  20.3515650   5.8797820  31.6463880  19.9670440   5.2391490  32.2446840
  20.6627840   6.5833940  32.2158610  26.5012790   2.7274360  27.1272500
  26.8682920   2.2532930  27.8733840  26.3117850   3.6015930  27.4680840
  24.2912160   1.7683000  29.4456710  23.9869230   2.6474980  29.6707070
  25.2458620   1.8282790  29.4814150  22.8193950   5.9743990  20.0423560
  22.0456210   5.4341610  19.8822280  23.5488580   5.4550600  19.7041320
  33.5781930   4.9709350  25.8349950  34.2981050   5.4664640  25.4446060
  33.3763750   4.2927240  25.1903820  28.9600730   5.0418410  31.7218950
  28.8938040   4.1214080  31.4676540  28.3305870   5.1393850  32.4363590
  22.8631350   5.6424370  23.6802370  23.3810020   4.8392630  23.6259260
  22.4115370   5.5803510  24.5219200  27.7500850   6.9090650  18.9529670
  28.0916550   7.6532880  18.4572990  26.9213560   7.2221770  19.3154500
  20.3475890   2.6085740  30.5928070  19.9890830   3.2739590  31.1801410
  20.0530450   1.7769290  30.9640690  23.5489010   3.0669980  33.4767620
  23.2489150   3.2127160  32.5795440  24.3200250   2.5075270  33.3841010
  28.8917460   7.8638980  31.4722750  28.9062000   6.9319940  31.2541660
  28.1842560   7.9498740  32.1112520  34.0254530   2.0478800  17.7421360
  33.9418250   2.4793020  16.8917800  34.7448720   2.5077150  18.1748180
  35.1028670   4.5046320  30.8191330  34.3776860   5.0975100  30.6220720
  35.6304130   4.4969860  30.0204700  35.0541780   8.9021060  20.4703490
  34.4117940   8.2476680  20.7447210  34.6672440   9.3076150  19.6944160
  30.6328260   6.2306490  24.3175180  30.9852080   5.6334620  23.6576550
  29.7490590   5.9050720  24.4883430  26.7191540   6.9904180  21.7245590
  27.4062670   7.5373390  22.1053180  25.9323960   7.5344910  21.7595200
  18.8583940   2.6077000  17.2162670  19.7278790   2.8901800  17.4998590
  18.3674260   3.4212870  17.1011480  26.0218750   3.9950210  21.3370950
  26.4781530   4.8055460  21.5631140  25.6706960   3.6773350  22.1689440
  28.3251360   9.5056550  28.5663250  28.9693580   9.7115930  29.2436670
  28.6880800   8.7444950  28.1134100  29.5983440   7.5088900  27.2840700
  30.2405670   6.8082060  27.3972870  30.1232790   8.2887340  27.1037590
  33.4439160   7.7937520  17.0079840  33.2176740   7.0767960  17.6004480
  33.0535360   7.5449960  16.1701590  31.3721060   8.3083800  30.4876760
  31.7077300   8.8950490  31.1654680  30.4521400   8.1776510  30.7174550
  19.2255190  11.8204380  17.7824300  19.5852830  12.4193720  17.1281570
  19.0847530  12.3664270  18.5559330  33.0255410   5.7109460  18.6694000
  32.7377110   6.1722150  19.4571880  33.8207580   5.2507230  18.9378220
  19.2097050  10.0859240  32.2566700  19.3188170   9.1453980  32.1162090
  18.5577610  10.3513990  31.6080430  27.2009640   8.3575130  33.6564820
  26.8806510   7.6384370  34.2010510  26.5268000   9.0330200  33.7300880
  25.2423810   9.2035580  18.5997970  25.2333910   9.9365270  17.9842480
  24.3222170   8.9567160  18.6924930  20.8430450   4.4250470  19.3444730
  20.2358400   5.1649370  19.3540030  21.3179800   4.5149830  18.5182930
  28.2283410   9.2663820  17.2623160  28.3295390   9.0627810  16.3325140
  27.3285150   9.0122100  17.4670940  26.8701520  11.7850140  21.9570830
  27.1243020  11.7471530  21.0350200  25.9214000  11.6583470  21.9499080
  32.8754100   2.7042020  23.5329340  31.9344240   2.7192250  23.7077030
  33.1898170   1.9177980  23.9789640  22.8535740   4.3861620  17.0933300
  23.6199010   4.2742980  17.6558730  22.9310430   3.6899590  16.4410070
  34.8779680   9.8750870  25.2083600  35.0027100  10.6982040  25.6807410
  35.7445240   9.6641600  24.8607750  22.3497210  11.9682080  24.8800730
  23.0859690  11.4197540  25.1509300  22.7338130  12.8338090  24.7406720
  19.2342690   8.0355650  20.7542240  18.3082470   8.2776790  20.7447650
  19.6999120   8.8629910  20.6326990  21.3555490  11.1528150  34.0686310
  22.1568220  11.4740200  34.4821710  20.8407310  10.7923730  34.7906220
  25.4599520  11.1412390  16.7026300  26.2528130  11.4301220  16.2508090
  24.9403870  10.7104560  16.0238780  30.1920120   7.2608020  34.0161720
  29.5858280   7.2839620  33.2757470  29.8874230   6.5291060  34.5528970
  31.6220490  10.9888310  32.6271130  32.5742240  10.9046330  32.5771370
  31.4748710  11.6530020  33.3004920  34.5129690  10.3682520  18.1263040
  34.2271200   9.9547660  17.3117220  34.3149240  11.2970230  18.0063560
  19.0753300   3.6401610  33.0122360  19.5792320   3.0608890  33.5838590
  18.3360720   3.9241840  33.5498730  25.9776920   6.3615800  16.5668650
  25.8727560   5.7468150  17.2930030  25.8101140   5.8381690  15.7831660
  26.1291240   5.0472600  32.5457880  25.3636910   5.6157600  32.4612550
  26.3107200   4.7548810  31.6526110  29.2179650   5.4235830  17.1710640
  28.6689750   5.8705130  17.8153380  29.8398910   4.9185080  17.6948310
  33.2714590   6.7777930  33.1032900  34.0124060   7.1153690  32.6000360
  32.5087270   6.9469990  32.5502670  21.1076380   1.7831200  33.9072430
  21.1481720   1.4845070  34.8157660  21.9621880   2.1838810  33.7479950
  24.8854770   4.3826750  19.0675940  25.3071190   4.2166620  19.9107330
  25.0105610   3.5726980  18.5731080  27.3982410   3.4064360  16.3153040
  27.9188070   2.6913380  15.9494190  28.0450810   4.0450230  16.6153550
  31.9460250   4.8292760  31.6388110  32.3601270   4.9837840  32.4878530
  31.0111250   4.9547980  31.8013890  26.7075480   4.7813240  29.6084040
  27.1263590   5.6245970  29.4360280  25.7884110   4.9185280  29.3790820
  29.0439380   2.5129420  30.9921880  29.1635590   1.9170560  31.7316720
  29.9033380   2.5499110  30.5723180  31.3827280   3.0666610  29.5684390
  30.8562500   3.5909230  28.9649530  31.7258620   3.6994000  30.1994120
  24.5582900  11.0866250  30.7241770  24.0203990  11.8112310  30.4050470
  24.8116860  10.6096590  29.9339110  27.4145110  12.3217460  30.9828420
  27.3403810  13.2252600  31.2900790  26.5123950  12.0029360  30.9550490
  27.9630440  11.4875970  18.6054780  28.8581230  11.8260940  18.6273540
  27.9948070  10.7655380  17.9779060  21.6026600   6.8603020  16.8341780
  22.0401470   7.4032690  17.4899360  22.0874330   6.0349970  16.8438120
  18.8172400   9.6492050  24.2862040  19.1475410   8.7813110  24.0540680
  19.2463400   9.8550570  25.1167000  23.4134320   7.9801060  21.9464010
  23.1129860   7.8566030  22.8467920  23.3071810   7.1209650  21.5379740
  19.3062610  10.5162640  27.0243670  18.8693600  10.6963440  27.8567820
  19.8740290  11.2737260  26.8825390  34.9424790  10.0179640  31.3120980
  34.3426780  10.0772200  30.5684900  35.0718690   9.0784620  31.4417830
  36.1826240   7.7597460  16.6490690  35.3519200   7.8274110  17.1197920
  36.3598070   8.6501580  16.3457550  35.6382700   4.5044940  19.1524890
  36.4001610   5.0741590  19.2584580  35.6537070   3.9372140  19.9233200
  19.1387040   3.0282870  23.3832550  18.4835880   2.7594510  22.7392250
  19.9764990   2.9187350  22.9334530  36.6442670   5.3595040  23.9966820
  37.0151500   4.5762360  23.5902790  37.2844600   6.0484140  23.8184120
  33.6276430   6.7431620  29.4097140  32.8136270   7.1728780  29.6722930
  34.0350630   7.3550030  28.7966190  35.6901870   4.7979310  16.3097410
  35.9650710   5.7058190  16.1816630  35.5012610   4.7341840  17.2459400
  35.5867210   2.7348300  21.3026840  35.2110810   1.9676230  20.8708130
  34.8570330   3.1171000  21.7901770  20.1762970   3.4135440  27.9235890
  20.5436010   3.3262840  28.8031910  19.6073790   2.6501990  27.8242750
  34.9766830   1.8819820  30.9366360  34.7452920   1.6532570  30.0364310
  35.2371380   2.8019370  30.8911250  33.6852480  11.4950220  22.9365410
  34.2811550  11.1734790  22.2599830  33.9430630  11.0222040  23.7278680
  21.5915050   7.9268130  33.0856040  21.5484680   7.5561040  33.9670500
  21.7226060   8.8645700  33.2257860  25.2921080   9.4827720  28.6865760
  25.0512440   9.7502280  27.7996280  26.2323720   9.6533450  28.7416620
  36.5525240  11.5022100  29.4876400  36.0583520  11.8990970  28.7703530
  35.9438530  10.8771310  29.8813680  21.4303080  10.8730380  30.2053820
  20.8363400  10.7415080  30.9443860  21.4226920  10.0368520  29.7395920
  34.2364690  12.1445520  26.7663140  33.7767660  12.8961330  26.3921160
  33.6077150  11.4251990  26.7077940  21.0615310   8.2388760  29.1561860
  20.3349370   7.6194050  29.0887810  21.1224460   8.6329370  28.2859940
  24.6660410  10.4533760  25.9411270  25.1825430   9.8421120  25.4159530
  25.3157790  10.9562540  26.4322280  27.4055910  11.3442250  26.7680250
  27.6933720  11.0896550  25.8913260  27.9179130  10.7919610  27.3585820
  19.3445310  11.5563150  22.3658620  19.1767350  10.9233830  23.0640510
  18.4779820  11.7622550  22.0152810  20.9508010  10.2496380  19.8108760
  20.4255630  10.6304410  19.1070720  20.8752590  10.8747150  20.5318470
  27.4728270  12.2658350  34.1348450  28.3995580  12.0302620  34.1784410
  27.4578700  13.0930350  33.6534480  35.7073330  11.8083920  21.1322700
  35.8825520  11.1221660  20.4883620  35.0094900  12.3330970  20.7399370
  23.5500980  12.1978760  18.6858010  24.2819800  11.9138040  18.1381900
  23.8094650  11.9592040  19.5757390  22.7115770   8.3143490  18.6904340
  22.0824650   8.7828590  19.2390170  22.8263600   7.4692710  19.1250530
  34.0405830  11.4928210  33.9589490  34.8331150  10.9977440  33.7515450
  34.3338980  12.1718350  34.5665100  28.2983530   4.1428170   6.7214810
  27.5225630   3.6628610   7.0113380  28.9496460   3.4633820   6.5470970
  22.3149360   4.4547980   7.5990570  21.4834240   4.1996690   7.9987080
  22.9230340   4.5258750   8.3348490  32.3190960   8.5488360   5.5013940
  31.8572490   7.7775600   5.8301110  33.1316510   8.5754430   6.0066390
  22.2950620   8.4888070   7.7948590  22.5978660   7.5985810   7.6158810
  23.0394210   9.0458290   7.5670840  28.5454270  10.8346370   5.1217930
  27.9265710  11.2903870   4.5512370  29.4006050  10.9897830   4.7207630
  27.7392520   6.8185360   6.7284970  27.6700800   5.8775300   6.5674100
  28.5012380   6.9086770   7.3007540  29.4117620   5.7185610   2.5149840
  28.7934890   6.1835060   1.9512560  29.9240870   6.4113090   2.9319350
  24.2749380   5.2461480   9.1933440  23.9418760   5.8730400   9.8354510
  24.4516060   5.7723360   8.4135110  23.4868480   7.2142280  11.0082620
  24.1042480   7.8893360  10.7267070  22.6261600   7.6230260  10.9170120
  34.4046070   8.6781690   8.9237260  33.7209590   9.3480800   8.9153930
  34.9440360   8.8762340   8.1582120  31.9404810  10.5225820   7.6382440
  31.9531970  10.1188110   6.7704700  31.3880030  11.2973110   7.5343870
  33.2350230   7.2442040   2.7272610  33.1246560   6.3016370   2.8522030
  33.2318480   7.6057680   3.6135370  31.3390250   5.4255660   8.9665050
  31.7559040   5.2115770   8.1318510  32.0630070   5.6828450   9.5373670
  28.7770510   2.8707360   2.0835100  27.8499790   2.8044740   2.3123570
  28.9295330   3.8087490   1.9690340  35.2852350   3.8242880   9.0581290
  34.4570980   3.8935970   8.5831420  35.8802830   4.4097190   8.5897120
  32.8067800   4.4327660   2.5870350  32.1880220   4.0947210   1.9396650
  32.7892250   3.7887420   3.2949540  24.3827150   3.3972100   4.8654830
  23.9784150   2.6849350   4.3700730  24.4690270   3.0525340   5.7542870
  24.8508850   7.0839660   7.0294040  24.5537140   6.4785130   6.3501820
  25.8008670   7.1216970   6.9183400  32.9394460  10.6571530  10.6917140
  32.4625020  11.4643720  10.4989750  32.2556250  10.0049860  10.8443350
  23.9427280   6.8221350  13.6801840  23.0455810   7.0461320  13.9275240
  23.9680150   6.9456290  12.7313240  22.7698500   3.6934670  12.2559210
  22.6306270   4.5657470  12.6246610  21.8879860   3.3507480  12.1107150
  29.0927880   8.6110540   3.5624340  29.5323790   9.3534870   3.1479730
  29.0314770   8.8537110   4.4863300  24.5678850   9.6356370  14.4644360
  24.5394280  10.0399320  13.5972790  24.4043820   8.7066730  14.3015960
  21.0831780   2.2917080   2.3661480  20.9629380   3.0179170   1.7542750
  20.7732670   1.5219990   1.8889390  36.5193670  10.4183470  15.7608530
  36.9953390  10.8966360  16.4397610  37.1400830  10.3500960  15.0354030
  18.7217150   5.4632220   8.1730120  18.7997570   5.5980990   7.2285840
  19.3358830   4.7548110   8.3658240  19.9664780   7.1632410   4.5836300
  19.5592860   7.3047000   3.7289900  20.8577790   6.8792570   4.3807510
  35.9226920   7.6096320  12.9208540  36.0489980   7.3708200  12.0025720
  35.9648300   6.7780860  13.3930620  29.7843660  11.3124320  11.4903350
  30.2988330  11.2232330  12.2925780  28.9412740  11.6584020  11.7831260
  24.2386440  11.3778190   2.6958970  24.0628920  10.4613730   2.4826770
  23.3842180  11.7365480   2.9356770  31.0274120  10.7329930   3.5533840
  31.4831070   9.9519310   3.8672460  31.3666640  11.4436750   4.0975020
  18.7776670   6.5046390  10.7124580  18.9407710   6.0351750   9.8943950
  19.2429120   5.9969950  11.3773420  20.3515650   5.8797820  12.8720390
  19.9670440   5.2391490  13.4703350  20.6627840   6.5833940  13.4415120
  26.5012790   2.7274360   8.3529010  26.8682920   2.2532930   9.0990350
  26.3117850   3.6015930   8.6937350  24.2912160   1.7683000  10.6713220
  23.9869230   2.6474980  10.8963580  25.2458620   1.8282790  10.7070660
  33.5781930   4.9709350   7.0606460  34.2981050   5.4664640   6.6702570
  33.3763750   4.2927240   6.4160330  28.9600730   5.0418410  12.9475460
  28.8938040   4.1214080  12.6933050  28.3305870   5.1393850  13.6620100
  22.8631350   5.6424370   4.9058880  23.3810020   4.8392630   4.8515770
  22.4115370   5.5803510   5.7475710  20.3475890   2.6085740  11.8184580
  19.9890830   3.2739590  12.4057920  20.0530450   1.7769290  12.1897200
  23.5489010   3.0669980  14.7024130  23.2489150   3.2127160  13.8051950
  24.3200250   2.5075270  14.6097520  28.8917460   7.8638980  12.6979260
  28.9062000   6.9319940  12.4798170  28.1842560   7.9498740  13.3369030
  35.1028670   4.5046320  12.0447840  34.3776860   5.0975100  11.8477230
  35.6304130   4.4969860  11.2461210  30.6328260   6.2306490   5.5431690
  30.9852080   5.6334620   4.8833060  29.7490590   5.9050720   5.7139940
  26.7191540   6.9904180   2.9502100  27.4062670   7.5373390   3.3309690
  25.9323960   7.5344910   2.9851710  26.0218750   3.9950210   2.5627460
  26.4781530   4.8055460   2.7887650  25.6706960   3.6773350   3.3945950
  28.3251360   9.5056550   9.7919760  28.9693580   9.7115930  10.4693180
  28.6880800   8.7444950   9.3390610  29.5983440   7.5088900   8.5097210
  30.2405670   6.8082060   8.6229380  30.1232790   8.2887340   8.3294100
  31.3721060   8.3083800  11.7133270  31.7077300   8.8950490  12.3911190
  30.4521400   8.1776510  11.9431060  19.2097050  10.0859240  13.4823210
  19.3188170   9.1453980  13.3418600  18.5577610  10.3513990  12.8336940
  27.2009640   8.3575130  14.8821330  26.8806510   7.6384370  15.4267020
  26.5268000   9.0330200  14.9557390  26.8701520  11.7850140   3.1827340
  27.1243020  11.7471530   2.2606710  25.9214000  11.6583470   3.1755590
  32.8754100   2.7042020   4.7585850  31.9344240   2.7192250   4.9333540
  33.1898170   1.9177980   5.2046150  34.8779680   9.8750870   6.4340110
  35.0027100  10.6982040   6.9063920  35.7445240   9.6641600   6.0864260
  22.3497210  11.9682080   6.1057240  23.0859690  11.4197540   6.3765810
  22.7338130  12.8338090   5.9663230  19.2342690   8.0355650   1.9798750
  18.3082470   8.2776790   1.9704160  19.6999120   8.8629910   1.8583500
  21.3555490  11.1528150  15.2942820  22.1568220  11.4740200  15.7078220
  20.8407310  10.7923730  16.0162730  30.1920120   7.2608020  15.2418230
  29.5858280   7.2839620  14.5013980  29.8874230   6.5291060  15.7785480
  31.6220490  10.9888310  13.8527640  32.5742240  10.9046330  13.8027880
  31.4748710  11.6530020  14.5261430  19.0753300   3.6401610  14.2378870
  19.5792320   3.0608890  14.8095100  18.3360720   3.9241840  14.7755240
  26.1291240   5.0472600  13.7714390  25.3636910   5.6157600  13.6869060
  26.3107200   4.7548810  12.8782620  33.2714590   6.7777930  14.3289410
  34.0124060   7.1153690  13.8256870  32.5087270   6.9469990  13.7759180
  21.1076380   1.7831200  15.1328940  21.1481720   1.4845070  16.0414170
  21.9621880   2.1838810  14.9736460  31.9460250   4.8292760  12.8644620
  32.3601270   4.9837840  13.7135040  31.0111250   4.9547980  13.0270400
  26.7075480   4.7813240  10.8340550  27.1263590   5.6245970  10.6616790
  25.7884110   4.9185280  10.6047330  29.0439380   2.5129420  12.2178390
  29.1635590   1.9170560  12.9573230  29.9033380   2.5499110  11.7979690
  31.3827280   3.0666610  10.7940900  30.8562500   3.5909230  10.1906040
  31.7258620   3.6994000  11.4250630  24.5582900  11.0866250  11.9498280
  24.0203990  11.8112310  11.6306980  24.8116860  10.6096590  11.1595620
  27.4145110  12.3217460  12.2084930  27.3403810  13.2252600  12.5157300
  26.5123950  12.0029360  12.1807000  18.8172400   9.6492050   5.5118550
  19.1475410   8.7813110   5.2797190  19.2463400   9.8550570   6.3423510
  23.4134320   7.9801060   3.1720520  23.1129860   7.8566030   4.0724430
  23.3071810   7.1209650   2.7636250  19.3062610  10.5162640   8.2500180
  18.8693600  10.6963440   9.0824330  19.8740290  11.2737260   8.1081900
  34.9424790  10.0179640  12.5377490  34.3426780  10.0772200  11.7941410
  35.0718690   9.0784620  12.6674340  19.1387040   3.0282870   4.6089060
  18.4835880   2.7594510   3.9648760  19.9764990   2.9187350   4.1591040
  36.6442670   5.3595040   5.2223330  37.0151500   4.5762360   4.8159300
  37.2844600   6.0484140   5.0440630  33.6276430   6.7431620  10.6353650
  32.8136270   7.1728780  10.8979440  34.0350630   7.3550030  10.0222700
  35.5867210   2.7348300   2.5283350  35.2110810   1.9676230   2.0964640
  34.8570330   3.1171000   3.0158280  20.1762970   3.4135440   9.1492400
  20.5436010   3.3262840  10.0288420  19.6073790   2.6501990   9.0499260
  34.9766830   1.8819820  12.1622870  34.7452920   1.6532570  11.2620820
  35.2371380   2.8019370  12.1167760  33.6852480  11.4950220   4.1621920
  34.2811550  11.1734790   3.4856340  33.9430630  11.0222040   4.9535190
  21.5915050   7.9268130  14.3112550  21.5484680   7.5561040  15.1927010
  21.7226060   8.8645700  14.4514370  25.2921080   9.4827720   9.9122270
  25.0512440   9.7502280   9.0252790  26.2323720   9.6533450   9.9673130
  36.5525240  11.5022100  10.7132910  36.0583520  11.8990970   9.9960040
  35.9438530  10.8771310  11.1070190  21.4303080  10.8730380  11.4310330
  20.8363400  10.7415080  12.1700370  21.4226920  10.0368520  10.9652430
  34.2364690  12.1445520   7.9919650  33.7767660  12.8961330   7.6177670
  33.6077150  11.4251990   7.9334450  21.0615310   8.2388760  10.3818370
  20.3349370   7.6194050  10.3144320  21.1224460   8.6329370   9.5116450
  24.6660410  10.4533760   7.1667780  25.1825430   9.8421120   6.6416040
  25.3157790  10.9562540   7.6578790  27.4055910  11.3442250   7.9936760
  27.6933720  11.0896550   7.1169770  27.9179130  10.7919610   8.5842330
  19.3445310  11.5563150   3.5915130  19.1767350  10.9233830   4.2897020
  18.4779820  11.7622550   3.2409320  27.4728270  12.2658350  15.3604960
  28.3995580  12.0302620  15.4040920  27.4578700  13.0930350  14.8790990
  35.7073330  11.8083920   2.3579210  35.8825520  11.1221660   1.7140130
  35.0094900  12.3330970   1.9655880  34.0405830  11.4928210  15.1846000
  34.8331150  10.9977440  14.9771960  34.3338980  12.1718350  15.7921610
  11.3922000  96.2366600  61.1636010  11.3116050  95.3221210  60.8927720
  10.9786420  96.7333670  60.4575720   9.5240040  98.0145620  63.0445280
   8.7482140  97.5346060  63.3343850  10.1752970  97.3351270  62.8701440
   3.5405870  98.3265430  63.9221040   2.7090750  98.0714140  64.3217550
   4.1486850  98.3976200  64.6578960   9.9954200  93.4973190  63.2784370
  10.3719020  92.6245070  63.1658040   9.8973710  93.8331890  62.3874810
   4.1259210  91.8698820  58.7401810   4.2325960  92.7702550  59.0470570
   3.2151570  91.8216790  58.4496460  13.7778320  90.9923630  60.2112710
  14.5987940  90.5020200  60.2538190  13.8112400  91.5821290  60.9644550
   5.9666940  94.8385190  63.0726990   6.4745160  95.3366160  63.7132010
   6.4980180  94.0620390  62.8966350  18.0677870  93.0090380  66.7756340
  17.3630040  93.3972090  66.2571450  18.3335790  93.7040670  67.3777270
   4.2503040  89.4783750  67.3390410   4.2521480  89.9956140  66.5336310
   3.4207350  89.0013930  67.3160340  14.0139800  92.9324010  62.9840250
  13.3095370  93.2208900  63.5643360  14.3751960  93.7424120  62.6239810
   3.9318370  91.1893710  65.3460860   4.2735180  92.0335760  65.0514730
   2.9934180  91.3377450  65.4626200  17.0826720  92.3778800  63.3749460
  16.1351630  92.4117780  63.5064890  17.4076710  93.1917750  63.7598820
   7.6146260  88.6775980  61.6705450   7.9221240  88.1222870  60.9540950
   6.6846960  88.8120440  61.4878440  10.0027020  96.7424810  58.4065570
   9.0756300  96.6762190  58.6354040  10.1551840  97.6804940  58.2920810
   9.9896100  93.0141810  55.4032730   9.0499770  93.1755770  55.4885190
  10.3079360  93.7327490  54.8568720  16.5108860  97.6960330  65.3811760
  15.6827490  97.7653420  64.9061890  17.1059340  98.2814640  64.9127590
  14.0324310  98.3045110  58.9100820  13.4136730  97.9664660  58.2627120
  14.0148760  97.6604870  59.6180010  13.4750870  94.4829650  66.3266630
  13.0622050  95.3083360  66.5806620  12.7426820  93.8974690  66.1342990
   5.6083660  97.2689550  61.1885300   5.2040660  96.5566800  60.6931200
   5.6946780  96.9242790  62.0773340   4.3212280  94.0432760  64.9684340
   4.8726870  94.1528100  64.1937590   4.8355790  94.4170360  65.6839570
  12.2089010  97.5431920  55.9173570  12.6482290  96.7054350  55.7711390
  12.9217430  98.1761320  56.0037710  15.7906150  88.7974730  54.2314610
  15.4778810  88.8901560  55.1313680  16.5518620  89.3755760  54.1812040
   2.3088290  96.1634530  58.6891950   2.1885890  96.8896620  58.0773220
   1.9989180  95.3937440  58.2119860   4.7751950  89.5069600  62.0715620
   4.3320100  90.2879140  61.7400140   5.3336940  89.8299490  62.7786560
   7.8910770  89.1280300  56.9521450   7.2664950  89.1240170  57.6774760
   7.8040890  88.2611260  56.5557420   6.8127850  90.0516930  63.9305220
   7.1100180  90.9579760  63.8497240   7.3613410  89.5635710  63.3164790
   4.5666170  94.6303170  59.7996870   4.3407090  94.4140340  60.7043490
   3.7858700  95.0631630  59.4542840  11.7963930  94.6366540  58.3987520
  11.1972820  95.3602340  58.2151140  12.3443540  94.5743320  57.6163970
  10.4028800  93.2730080  60.4290800  10.7958370  93.5902280  59.6159490
  10.7645650  92.3941960  60.5435320  10.9883940  95.8635830  64.5241580
  10.2565060  96.3722640  64.8731680  10.5908280  95.0465810  64.2230360
   7.4261330  92.5390030  62.9294070   7.4297390  92.0979980  62.0798610
   8.3212450  92.8607360  63.0365890   3.2763710  92.4216520  61.8888280
   2.9363760  92.8991750  62.6455330   2.5141030  91.9681640  61.5289380
   7.4881480  93.5402110  55.9200830   7.6094300  93.4988590  56.8686650
   7.1029990  94.4026260  55.7647560  11.4509850  91.3169510  63.9364520
  11.4682590  91.7678160  64.7806370  11.2025430  90.4175150  64.1497960
   6.5002980  95.8503250  55.3184130   5.9319880  95.4021500  54.6920040
   7.2091980  96.2096030  54.7849280   7.7269300  96.5991810  64.6759480
   8.0939430  96.1250380  65.4220820   7.5374360  97.4733380  65.0167820
   5.5168670  95.6400450  66.9943690   5.2125740  96.5192430  67.2194050
   6.4715130  95.7000240  67.0301130  10.2648380  90.2364760  57.5266320
   9.4512990  89.7377930  57.4511630  10.0710330  91.0763010  57.1102670
  12.9796770  94.6084410  55.8228480  13.8676390  94.9201640  55.6479820
  12.9501860  93.7356660  55.4309060  15.2511040  95.9196250  55.2908340
  15.1674760  96.3510470  54.4404780  15.9705230  96.3794600  55.7235160
   7.2475260  97.8667660  58.8857930   7.7038040  98.6772910  59.1118120
   6.8963470  97.5490800  59.7176420   3.1487040  88.2105310  59.3580450
   3.0201670  88.2023210  60.3065370   2.3249060  88.5488400  59.0071460
  11.6419750  92.4618740  66.5688600  12.0100570  91.6413950  66.8968170
  10.7817950  92.5220630  66.9844250  15.0081780  91.4175680  57.3776160
  14.3794940  91.5221350  56.6634390  14.5133700  91.6372460  58.1670040
   6.9765810  93.6961630  58.7934040   6.2681960  94.1647970  59.2347650
   7.2610290  93.0383640  59.4279230   8.6021740  95.1158330  66.7926570
   9.1006990  95.5904150  67.4578420   8.7444690  94.1921850  66.9996600
  11.0081240  90.4212290  60.2329830  10.8849020  90.4398420  59.2839340
  11.9565800  90.4691230  60.3528230   5.1800830  92.0046710  56.1684750
   6.0291360  92.4416860  56.1024940   4.8132100  92.3166970  56.9956810
  14.1010610  96.5759470  61.0816320  13.1600750  96.5909700  61.2564010
  14.4154680  95.7895430  61.5276620   4.0792250  98.2579070  54.6420280
   4.8455520  98.1460430  55.2045710   4.1566940  97.5617040  53.9897050
   2.7739010  95.6904140  55.3253170   2.8542600  94.7431650  55.4370570
   3.6658760  96.0211020  55.4313830   6.1111280  98.2544200  56.6162920
   6.5327700  98.0884070  57.4594310   6.2362120  97.4444430  56.1218060
   8.6238920  97.2781810  53.8640020   9.1444580  96.5630830  53.4981170
   9.2707320  97.9167680  54.1640530   7.5272440  89.7576360  66.5358580
   7.0789740  89.7800620  65.6904130   6.8937640  89.3595380  67.1328880
  12.6083790  96.9384060  67.1171370  12.0819010  97.4626680  66.5136510
  12.9515130  97.5711450  67.7481100   5.0070180  94.3277430  53.5621080
   4.8059240  93.4644790  53.9234420   4.8362230  94.2410790  52.6242680
  12.4858490  89.1385660  56.0907960  12.7660780  88.2953560  56.4467380
  11.7124220  89.3708770  56.6046710   3.8052980  91.4278050  53.5498960
   4.1078880  91.4345480  52.6418110   4.5447570  91.0775910  54.0466620
   7.0237910  90.3712670  54.5355160   6.6759910  89.6936660  53.9557610
   7.2250680  89.9102180  55.3498550  13.3133990  91.6941610  55.1538020
  13.7318870  91.5072590  54.3134680  13.0070050  90.8420660  55.4640950
  16.8123720  96.6065750  58.8513820  16.4367320  95.8393680  58.4195110
  16.0826840  96.9888450  59.3388750  16.0874680  94.8323240  62.1521060
  16.6112160  94.3385890  61.5211230  16.6734100  94.9673600  62.8968630
  16.2664400  94.9163110  65.6740610  15.3167110  94.8826650  65.7885600
  16.4477410  95.8263220  65.4390380   1.7683000  89.2204120  53.8241890
   2.4911130  89.7613060  54.1423110   2.0407520  88.9467540  52.9483430
  15.5774650  94.0896590  58.0913470  16.0733770  93.8567460  58.8762350
  15.3790720  93.2508430  57.6751110  17.0061810  92.7257540  60.6251150
  16.8961090  92.5713580  61.5633420  17.7669400  92.1978480  60.3826560
  15.3527530  88.6651670  67.0834150  15.9899750  89.2785810  67.4493340
  15.5002420  88.7012330  66.1383380  17.8952080  90.5565460  53.8657290
  18.8201390  90.4246640  53.6575580  17.8727870  90.6358280  54.8193740
  17.9690570  91.3276120  56.4914000  17.1742070  91.2621240  57.0206910
  18.1733850  92.2626760  56.4799350  12.1014610  88.0380060  65.9570830
  11.2274450  88.3715170  65.7543760  11.9925360  87.5653240  66.7822700
  13.0086590  90.2450930  67.3412550  12.6799950  89.4302690  66.9614280
  13.9568890  90.2020740  67.2178240   9.8489430  88.9549900  64.8963740
   9.0661220  89.4295400  65.1760500   9.5552360  88.0504730  64.7876920
  14.4010500  89.6573000  62.9412830  14.8418590  89.6018100  62.0934430
  14.1318090  90.5731010  63.0123010  16.2649070  89.2888240  60.9521650
  16.2037470  88.3449460  60.8052670  17.0441100  89.3968330  61.4975110
   7.7343650  91.3736650  60.4079770   6.9218160  90.9993540  60.0675650
   8.2385290  90.6181730  60.7100960  12.2368630  88.0379100  61.6462840
  12.8398000  88.6099310  62.1211360  11.4961620  88.6018540  61.4236740
  15.3803230  88.4400660  56.9203120  15.5753860  89.3384110  57.1870550
  14.5933100  88.2087740  57.4136070   3.5654990  89.7861430  55.9579430
   4.0947750  88.9991230  55.8287380   4.1983310  90.4652620  56.1914960
   5.7592830  89.5236570  59.0124820   5.1295570  88.8223880  59.1794950
   5.2197970  90.2840700  58.7957980  11.3922000  96.2366600  42.3892520
  11.3116050  95.3221210  42.1184230  10.9786420  96.7333670  41.6832230
   9.5240040  98.0145620  44.2701790   8.7482140  97.5346060  44.5600360
  10.1752970  97.3351270  44.0957950   3.5405870  98.3265430  45.1477550
   2.7090750  98.0714140  45.5474060   4.1486850  98.3976200  45.8835470
   9.9954200  93.4973190  44.5040880  10.3719020  92.6245070  44.3914550
   9.8973710  93.8331890  43.6131320   4.1259210  91.8698820  39.9658320
   4.2325960  92.7702550  40.2727080   3.2151570  91.8216790  39.6752970
  13.7778320  90.9923630  41.4369220  14.5987940  90.5020200  41.4794700
  13.8112400  91.5821290  42.1901060   5.9666940  94.8385190  44.2983500
   6.4745160  95.3366160  44.9388520   6.4980180  94.0620390  44.1222860
  18.0677870  93.0090380  48.0012850  17.3630040  93.3972090  47.4827960
  18.3335790  93.7040670  48.6033780   4.2503040  89.4783750  48.5646920
   4.2521480  89.9956140  47.7592820   3.4207350  89.0013930  48.5416850
  14.0139800  92.9324010  44.2096760  13.3095370  93.2208900  44.7899870
  14.3751960  93.7424120  43.8496320   3.9318370  91.1893710  46.5717370
   4.2735180  92.0335760  46.2771240   2.9934180  91.3377450  46.6882710
  17.0826720  92.3778800  44.6005970  16.1351630  92.4117780  44.7321400
  17.4076710  93.1917750  44.9855330   7.6146260  88.6775980  42.8961960
   7.9221240  88.1222870  42.1797460   6.6846960  88.8120440  42.7134950
  10.0027020  96.7424810  39.6322080   9.0756300  96.6762190  39.8610550
  10.1551840  97.6804940  39.5177320   9.9896100  93.0141810  36.6289240
   9.0499770  93.1755770  36.7141700  10.3079360  93.7327490  36.0825230
  16.5108860  97.6960330  46.6068270  15.6827490  97.7653420  46.1318400
  17.1059340  98.2814640  46.1384100  14.0324310  98.3045110  40.1357330
  13.4136730  97.9664660  39.4883630  14.0148760  97.6604870  40.8436520
  13.4750870  94.4829650  47.5523140  13.0622050  95.3083360  47.8063130
  12.7426820  93.8974690  47.3599500   5.6083660  97.2689550  42.4141810
   5.2040660  96.5566800  41.9187710   5.6946780  96.9242790  43.3029850
   4.3212280  94.0432760  46.1940850   4.8726870  94.1528100  45.4194100
   4.8355790  94.4170360  46.9096080  12.2089010  97.5431920  37.1430080
  12.6482290  96.7054350  36.9967900  12.9217430  98.1761320  37.2294220
   3.9955010  97.5652120  49.8046190   3.8562780  98.4374920  50.1733590
   3.1136370  97.2224930  49.6594130  15.7906150  88.7974730  35.4571120
  15.4778810  88.8901560  36.3570190  16.5518620  89.3755760  35.4068550
   2.3088290  96.1634530  39.9148460   2.1885890  96.8896620  39.3029730
   1.9989180  95.3937440  39.4376370  17.0007440  93.5346230  51.4345260
  16.3851710  94.0425900  50.9060720  16.6803860  92.6344560  51.3771200
   4.7751950  89.5069600  43.2972130   4.3320100  90.2879140  42.9656650
   5.3336940  89.8299490  44.0043070   9.0621760  92.3738120  48.9007450
   8.6001130  92.5821140  49.7127390   8.6599870  91.5597470  48.5978120
  14.0626270  93.5947070  50.0304110  13.2119860  93.2952820  50.3513180
  13.9028060  93.8389080  49.1187930  11.1575980  95.0948820  52.1302900
  11.4829390  94.2612570  51.7905130  11.9456310  95.6177340  52.2781230
   7.8910770  89.1280300  38.1777960   7.2664950  89.1240170  38.9031270
   7.8040890  88.2611260  37.7813930   6.8127850  90.0516930  45.1561730
   7.1100180  90.9579760  45.0753750   7.3613410  89.5635710  44.5421300
   4.5666170  94.6303170  41.0253380   4.3407090  94.4140340  41.9300000
   3.7858700  95.0631630  40.6799350  11.7963930  94.6366540  39.6244030
  11.1972820  95.3602340  39.4407650  12.3443540  94.5743320  38.8420480
   7.0065380  95.5288750  51.6913650   6.9108980  94.5883480  51.5414050
   7.8497360  95.7503820  51.2961720  10.4028800  93.2730080  41.6547310
  10.7958370  93.5902280  40.8416000  10.7645650  92.3941960  41.7691830
   8.7120970  92.0237390  52.9144170   8.0219290  91.8309590  53.5490260
   9.4553270  92.3072030  53.4468470  10.9883940  95.8635830  45.7498090
  10.2565060  96.3722640  46.0988190  10.5908280  95.0465810  45.4486870
   7.4261330  92.5390030  44.1550580   7.4297390  92.0979980  43.3055120
   8.3212450  92.8607360  44.2622400   3.2763710  92.4216520  43.1144790
   2.9363760  92.8991750  43.8711840   2.5141030  91.9681640  42.7545890
   7.4881480  93.5402110  37.1457340   7.6094300  93.4988590  38.0943160
   7.1029990  94.4026260  36.9904070  11.4509850  91.3169510  45.1621030
  11.4682590  91.7678160  46.0062880  11.2025430  90.4175150  45.3754470
   6.5002980  95.8503250  36.5440640   5.9319880  95.4021500  35.9176550
   7.2091980  96.2096030  36.0105790  14.8780600  88.7301690  51.0007410
  15.2026370  87.9991350  51.5265390  14.9137110  88.4115330  50.0988400
   7.7269300  96.5991810  45.9015990   8.0939430  96.1250380  46.6477330
   7.5374360  97.4733380  46.2424330   5.5168670  95.6400450  48.2200200
   5.2125740  96.5192430  48.4450560   6.4715130  95.7000240  48.2557640
  10.2648380  90.2364760  38.7522830   9.4512990  89.7377930  38.6768140
  10.0710330  91.0763010  38.3359180  12.9796770  94.6084410  37.0484990
  13.8676390  94.9201640  36.8736330  12.9501860  93.7356660  36.6565570
   4.7745520  96.9387430  52.2511110   4.4745660  97.0844610  51.3538930
   5.5456760  96.3792720  52.1584500  15.2511040  95.9196250  36.5164850
  15.1674760  96.3510470  35.6661290  15.9705230  96.3794600  36.9491670
   7.2475260  97.8667660  40.1114440   7.7038040  98.6772910  40.3374630
   6.8963470  97.5490800  40.9432930   3.1487040  88.2105310  40.5836960
   3.0201670  88.2023210  41.5321880   2.3249060  88.5488400  40.2327970
  11.6419750  92.4618740  47.7945110  12.0100570  91.6413950  48.1224680
  10.7817950  92.5220630  48.2100760  15.0081780  91.4175680  38.6032670
  14.3794940  91.5221350  37.8890900  14.5133700  91.6372460  39.3926550
   6.9765810  93.6961630  40.0190550   6.2681960  94.1647970  40.4604160
   7.2610290  93.0383640  40.6535740   8.6021740  95.1158330  48.0183080
   9.1006990  95.5904150  48.6834930   8.7444690  94.1921850  48.2253110
  11.0081240  90.4212290  41.4586340  10.8849020  90.4398420  40.5095850
  11.9565800  90.4691230  41.5784740   5.1800830  92.0046710  37.3941260
   6.0291360  92.4416860  37.3281450   4.8132100  92.3166970  38.2213320
  15.8088600  91.3326290  48.8611470  15.3062200  92.0731690  49.2005280
  16.6245260  91.7210290  48.5448260  14.1010610  96.5759470  42.3072830
  13.1600750  96.5909700  42.4820520  14.4154680  95.7895430  42.7533130
   4.0792250  98.2579070  35.8676790   4.8455520  98.1460430  36.4302220
   4.1566940  97.5617040  35.2153560   2.7739010  95.6904140  36.5509680
   2.8542600  94.7431650  36.6627080   3.6658760  96.0211020  36.6570340
   2.3332890  95.6548650  52.6815920   2.3738230  95.3562520  53.5901150
   3.1878390  96.0556260  52.5223440   6.1111280  98.2544200  37.8419430
   6.5327700  98.0884070  38.6850820   6.2362120  97.4444430  37.3474570
   4.2738700  94.2340750  50.6490410   3.7435160  93.7431700  50.0213750
   4.9426770  94.6624950  50.1148340   8.6238920  97.2781810  35.0896530
   9.1444580  96.5630830  34.7237680   9.2707320  97.9167680  35.3897040
  13.6438930  96.0406370  52.4170750  14.2259700  95.2858690  52.3291230
  13.8200700  96.5713810  51.6402230   4.7611000  91.2003120  50.7287700
   4.6667870  90.5823870  50.0038570   4.1808390  91.9269410  50.5017610
   7.5272440  89.7576360  47.7615090   7.0789740  89.7800620  46.9160640
   6.8937640  89.3595380  48.3585390  10.2695890  96.3846870  49.7665370
  10.3892100  95.7888010  50.5060210  11.1289890  96.4216560  49.3466670
  12.6083790  96.9384060  48.3427880  12.0819010  97.4626680  47.7393020
  12.9515130  97.5711450  48.9737610   5.0070180  94.3277430  34.7877590
   4.8059240  93.4644790  35.1490930   4.8362230  94.2410790  33.8499190
   7.0364660  92.9268220  51.0241190   7.6264350  92.6184070  51.7119010
   6.2184900  92.4547970  51.1801090  11.8558090  92.5434030  51.2574210
  11.1673610  91.8815570  51.1924200  12.5764110  92.0972300  51.7022670
  12.4858490  89.1385660  37.3164470  12.7660780  88.2953560  37.6723890
  11.7124220  89.3708770  37.8303220   3.8052980  91.4278050  34.7755470
   4.1078880  91.4345480  33.8674620   4.5447570  91.0775910  35.2723130
   7.0237910  90.3712670  35.7611670   6.6759910  89.6936660  35.1814120
   7.2250680  89.9102180  36.5755060  13.3133990  91.6941610  36.3794530
  13.7318870  91.5072590  35.5391190  13.0070050  90.8420660  36.6897460
  16.8123720  96.6065750  40.0770330  16.4367320  95.8393680  39.6451620
  16.0826840  96.9888450  40.5645260  16.2023340  95.7537270  49.7109850
  15.9709430  95.5250020  48.8107800  16.4627890  96.6736820  49.6654740
  14.6411410  90.9793700  52.4889550  15.5181590  90.9877100  52.8723550
  14.6532250  90.2424540  51.8781900  16.0874680  94.8323240  43.3777570
  16.6112160  94.3385890  42.7467740  16.6734100  94.9673600  44.1225140
  16.2664400  94.9163110  46.8997120  15.3167110  94.8826650  47.0142110
  16.4477410  95.8263220  46.6646890   1.7683000  89.2204120  35.0498400
   2.4911130  89.7613060  35.3679620   2.0407520  88.9467540  34.1739940
  15.5774650  94.0896590  39.3169980  16.0733770  93.8567460  40.1018860
  15.3790720  93.2508430  38.9007620  17.0061810  92.7257540  41.8507660
  16.8961090  92.5713580  42.7889930  17.7669400  92.1978480  41.6083070
  15.3527530  88.6651670  48.3090660  15.9899750  89.2785810  48.6749850
  15.5002420  88.7012330  47.3639890  17.8952080  90.5565460  35.0913800
  18.8201390  90.4246640  34.8832090  17.8727870  90.6358280  36.0450250
  17.9690570  91.3276120  37.7170510  17.1742070  91.2621240  38.2463420
  18.1733850  92.2626760  37.7055860   8.7232010  89.8177860  51.2165760
   8.6620900  90.4099690  51.9661170   9.6632390  89.7103820  51.0716020
  11.3606570  89.4747920  50.8558050  11.9746980  89.7927210  50.1939130
  11.9056130  88.9896510  51.4753910   1.8827830  88.1542180  50.9697110
   2.4310820  87.9730230  50.2063220   1.9483140  87.3636290  51.5053420
  12.1014610  88.0380060  47.1827340  11.2274450  88.3715170  46.9800270
  11.9925360  87.5653240  48.0079210  13.0086590  90.2450930  48.5669060
  12.6799950  89.4302690  48.1870790  13.9568890  90.2020740  48.4434750
   9.8489430  88.9549900  46.1220250   9.0661220  89.4295400  46.4017010
   9.5552360  88.0504730  46.0133430  14.4010500  89.6573000  44.1669340
  14.8418590  89.6018100  43.3190940  14.1318090  90.5731010  44.2379520
  16.2649070  89.2888240  42.1778160  16.2037470  88.3449460  42.0309180
  17.0441100  89.3968330  42.7231620   7.7343650  91.3736650  41.6336280
   6.9218160  90.9993540  41.2932160   8.2385290  90.6181730  41.9357470
  12.2368630  88.0379100  42.8719350  12.8398000  88.6099310  43.3467870
  11.4961620  88.6018540  42.6493250  15.3803230  88.4400660  38.1459630
  15.5753860  89.3384110  38.4127060  14.5933100  88.2087740  38.6392580
   3.5654990  89.7861430  37.1835940   4.0947750  88.9991230  37.0543890
   4.1983310  90.4652620  37.4171470   5.7592830  89.5236570  40.2381330
   5.1295570  88.8223880  40.4051460   5.2197970  90.2840700  40.0214490
   5.8848390  88.8020550  52.6733820   5.6032660  89.3054150  51.9094640
   6.2668090  88.0042300  52.3075950  12.4863850  88.2174130  53.2514290
  12.3729300  88.5368740  54.1465810  13.3033590  88.6186640  52.9551570
  11.3922000  96.2366600  23.6149030  11.3116050  95.3221210  23.3440740
  10.9786420  96.7333670  22.9088740   9.5240040  98.0145620  25.4958300
   8.7482140  97.5346060  25.7856870  10.1752970  97.3351270  25.3214460
   3.5405870  98.3265430  26.3734060   2.7090750  98.0714140  26.7730570
   4.1486850  98.3976200  27.1091980   9.9954200  93.4973190  25.7297390
  10.3719020  92.6245070  25.6171060   9.8973710  93.8331890  24.8387830
   4.1259210  91.8698820  21.1914830   4.2325960  92.7702550  21.4983590
   3.2151570  91.8216790  20.9009480  13.7778320  90.9923630  22.6625730
  14.5987940  90.5020200  22.7051210  13.8112400  91.5821290  23.4157570
   5.9666940  94.8385190  25.5240010   6.4745160  95.3366160  26.1645030
   6.4980180  94.0620390  25.3479370  18.0677870  93.0090380  29.2269360
  17.3630040  93.3972090  28.7084470  18.3335790  93.7040670  29.8290290
   4.2503040  89.4783750  29.7903430   4.2521480  89.9956140  28.9849330
   3.4207350  89.0013930  29.7673360  14.0139800  92.9324010  25.4353270
  13.3095370  93.2208900  26.0156380  14.3751960  93.7424120  25.0752830
   3.9318370  91.1893710  27.7973880   4.2735180  92.0335760  27.5027750
   2.9934180  91.3377450  27.9139220  17.0826720  92.3778800  25.8262480
  16.1351630  92.4117780  25.9577910  17.4076710  93.1917750  26.2111840
   7.6146260  88.6775980  24.1218470   7.9221240  88.1222870  23.4053970
   6.6846960  88.8120440  23.9391460  10.0027020  96.7424810  20.8578590
   9.0756300  96.6762190  21.0867060  10.1551840  97.6804940  20.7433830
   9.9896100  93.0141810  17.8545750   9.0499770  93.1755770  17.9398210
  10.3079360  93.7327490  17.3081740  16.5108860  97.6960330  27.8324780
  15.6827490  97.7653420  27.3574910  17.1059340  98.2814640  27.3640610
  14.0324310  98.3045110  21.3613840  13.4136730  97.9664660  20.7140140
  14.0148760  97.6604870  22.0693030  13.4750870  94.4829650  28.7779650
  13.0622050  95.3083360  29.0319640  12.7426820  93.8974690  28.5856010
   5.6083660  97.2689550  23.6398320   5.2040660  96.5566800  23.1444220
   5.6946780  96.9242790  24.5286360   4.3212280  94.0432760  27.4197360
   4.8726870  94.1528100  26.6450610   4.8355790  94.4170360  28.1352590
  12.2089010  97.5431920  18.3686590  12.6482290  96.7054350  18.2224410
  12.9217430  98.1761320  18.4550730   3.9955010  97.5652120  31.0302700
   3.8562780  98.4374920  31.3990100   3.1136370  97.2224930  30.8850640
  15.7906150  88.7974730  16.6827630  15.4778810  88.8901560  17.5826700
  16.5518620  89.3755760  16.6325060   2.3088290  96.1634530  21.1404970
   2.1885890  96.8896620  20.5286240   1.9989180  95.3937440  20.6632880
  17.0007440  93.5346230  32.6601770  16.3851710  94.0425900  32.1317230
  16.6803860  92.6344560  32.6027710   4.7751950  89.5069600  24.5228640
   4.3320100  90.2879140  24.1913160   5.3336940  89.8299490  25.2299580
   9.0621760  92.3738120  30.1263960   8.6001130  92.5821140  30.9383900
   8.6599870  91.5597470  29.8234630  14.0626270  93.5947070  31.2560620
  13.2119860  93.2952820  31.5769690  13.9028060  93.8389080  30.3444440
  11.1575980  95.0948820  33.3559410  11.4829390  94.2612570  33.0161640
  11.9456310  95.6177340  33.5037740   7.8910770  89.1280300  19.4034470
   7.2664950  89.1240170  20.1287780   7.8040890  88.2611260  19.0070440
   6.8127850  90.0516930  26.3818240   7.1100180  90.9579760  26.3010260
   7.3613410  89.5635710  25.7677810   4.5666170  94.6303170  22.2509890
   4.3407090  94.4140340  23.1556510   3.7858700  95.0631630  21.9055860
  11.7963930  94.6366540  20.8500540  11.1972820  95.3602340  20.6664160
  12.3443540  94.5743320  20.0676990   7.0065380  95.5288750  32.9170160
   6.9108980  94.5883480  32.7670560   7.8497360  95.7503820  32.5218230
  10.4028800  93.2730080  22.8803820  10.7958370  93.5902280  22.0672510
  10.7645650  92.3941960  22.9948340   8.7120970  92.0237390  34.1400680
   8.0219290  91.8309590  34.7746770   9.4553270  92.3072030  34.6724980
  10.9883940  95.8635830  26.9754600  10.2565060  96.3722640  27.3244700
  10.5908280  95.0465810  26.6743380   7.4261330  92.5390030  25.3807090
   7.4297390  92.0979980  24.5311630   8.3212450  92.8607360  25.4878910
   3.2763710  92.4216520  24.3401300   2.9363760  92.8991750  25.0968350
   2.5141030  91.9681640  23.9802400   7.4881480  93.5402110  18.3713850
   7.6094300  93.4988590  19.3199670   7.1029990  94.4026260  18.2160580
  11.4509850  91.3169510  26.3877540  11.4682590  91.7678160  27.2319390
  11.2025430  90.4175150  26.6010980   6.5002980  95.8503250  17.7697150
   5.9319880  95.4021500  17.1433060   7.2091980  96.2096030  17.2362300
  14.8780600  88.7301690  32.2263920  15.2026370  87.9991350  32.7521900
  14.9137110  88.4115330  31.3244910   7.7269300  96.5991810  27.1272500
   8.0939430  96.1250380  27.8733840   7.5374360  97.4733380  27.4680840
   5.5168670  95.6400450  29.4456710   5.2125740  96.5192430  29.6707070
   6.4715130  95.7000240  29.4814150  10.2648380  90.2364760  19.9779340
   9.4512990  89.7377930  19.9024650  10.0710330  91.0763010  19.5615690
  12.9796770  94.6084410  18.2741500  13.8676390  94.9201640  18.0992840
  12.9501860  93.7356660  17.8822080   4.7745520  96.9387430  33.4767620
   4.4745660  97.0844610  32.5795440   5.5456760  96.3792720  33.3841010
  15.2511040  95.9196250  17.7421360  15.1674760  96.3510470  16.8917800
  15.9705230  96.3794600  18.1748180   7.2475260  97.8667660  21.3370950
   7.7038040  98.6772910  21.5631140   6.8963470  97.5490800  22.1689440
   3.1487040  88.2105310  21.8093470   3.0201670  88.2023210  22.7578390
   2.3249060  88.5488400  21.4584480  11.6419750  92.4618740  29.0201620
  12.0100570  91.6413950  29.3481190  10.7817950  92.5220630  29.4357270
  15.0081780  91.4175680  19.8289180  14.3794940  91.5221350  19.1147410
  14.5133700  91.6372460  20.6183060   6.9765810  93.6961630  21.2447060
   6.2681960  94.1647970  21.6860670   7.2610290  93.0383640  21.8792250
   8.6021740  95.1158330  29.2439590   9.1006990  95.5904150  29.9091440
   8.7444690  94.1921850  29.4509620  11.0081240  90.4212290  22.6842850
  10.8849020  90.4398420  21.7352360  11.9565800  90.4691230  22.8041250
   5.1800830  92.0046710  18.6197770   6.0291360  92.4416860  18.5537960
   4.8132100  92.3166970  19.4469830  15.8088600  91.3326290  30.0867980
  15.3062200  92.0731690  30.4261790  16.6245260  91.7210290  29.7704770
  14.1010610  96.5759470  23.5329340  13.1600750  96.5909700  23.7077030
  14.4154680  95.7895430  23.9789640   4.0792250  98.2579070  17.0933300
   4.8455520  98.1460430  17.6558730   4.1566940  97.5617040  16.4410070
   2.7739010  95.6904140  17.7766190   2.8542600  94.7431650  17.8883590
   3.6658760  96.0211020  17.8826850   2.3332890  95.6548650  33.9072430
   2.3738230  95.3562520  34.8157660   3.1878390  96.0556260  33.7479950
   6.1111280  98.2544200  19.0675940   6.5327700  98.0884070  19.9107330
   6.2362120  97.4444430  18.5731080   4.2738700  94.2340750  31.8746920
   3.7435160  93.7431700  31.2470260   4.9426770  94.6624950  31.3404850
   8.6238920  97.2781810  16.3153040   9.1444580  96.5630830  15.9494190
   9.2707320  97.9167680  16.6153550  13.6438930  96.0406370  33.6427260
  14.2259700  95.2858690  33.5547740  13.8200700  96.5713810  32.8658740
   4.7611000  91.2003120  31.9544210   4.6667870  90.5823870  31.2295080
   4.1808390  91.9269410  31.7274120   7.5272440  89.7576360  28.9871600
   7.0789740  89.7800620  28.1417150   6.8937640  89.3595380  29.5841900
  10.2695890  96.3846870  30.9921880  10.3892100  95.7888010  31.7316720
  11.1289890  96.4216560  30.5723180  12.6083790  96.9384060  29.5684390
  12.0819010  97.4626680  28.9649530  12.9515130  97.5711450  30.1994120
   5.0070180  94.3277430  16.0134100   4.8059240  93.4644790  16.3747440
   4.8362230  94.2410790  15.0755700   7.0364660  92.9268220  32.2497700
   7.6264350  92.6184070  32.9375520   6.2184900  92.4547970  32.4057600
  11.8558090  92.5434030  32.4830720  11.1673610  91.8815570  32.4180710
  12.5764110  92.0972300  32.9279180  12.4858490  89.1385660  18.5420980
  12.7660780  88.2953560  18.8980400  11.7124220  89.3708770  19.0559730
   3.8052980  91.4278050  16.0011980   4.1078880  91.4345480  15.0931130
   4.5447570  91.0775910  16.4979640   7.0237910  90.3712670  16.9868180
   6.6759910  89.6936660  16.4070630   7.2250680  89.9102180  17.8011570
  13.3133990  91.6941610  17.6051040  13.7318870  91.5072590  16.7647700
  13.0070050  90.8420660  17.9153970  16.8123720  96.6065750  21.3026840
  16.4367320  95.8393680  20.8708130  16.0826840  96.9888450  21.7901770
  16.2023340  95.7537270  30.9366360  15.9709430  95.5250020  30.0364310
  16.4627890  96.6736820  30.8911250  14.6411410  90.9793700  33.7146060
  15.5181590  90.9877100  34.0980060  14.6532250  90.2424540  33.1038410
  16.0874680  94.8323240  24.6034080  16.6112160  94.3385890  23.9724250
  16.6734100  94.9673600  25.3481650  16.2664400  94.9163110  28.1253630
  15.3167110  94.8826650  28.2398620  16.4477410  95.8263220  27.8903400
   1.7683000  89.2204120  16.2754910   2.4911130  89.7613060  16.5936130
   2.0407520  88.9467540  15.3996450  15.5774650  94.0896590  20.5426490
  16.0733770  93.8567460  21.3275370  15.3790720  93.2508430  20.1264130
  17.0061810  92.7257540  23.0764170  16.8961090  92.5713580  24.0146440
  17.7669400  92.1978480  22.8339580  15.3527530  88.6651670  29.5347170
  15.9899750  89.2785810  29.9006360  15.5002420  88.7012330  28.5896400
  17.8952080  90.5565460  16.3170310  18.8201390  90.4246640  16.1088600
  17.8727870  90.6358280  17.2706760  17.9690570  91.3276120  18.9427020
  17.1742070  91.2621240  19.4719930  18.1733850  92.2626760  18.9312370
   8.7232010  89.8177860  32.4422270   8.6620900  90.4099690  33.1917680
   9.6632390  89.7103820  32.2972530  11.3606570  89.4747920  32.0814560
  11.9746980  89.7927210  31.4195640  11.9056130  88.9896510  32.7010420
   1.8827830  88.1542180  32.1953620   2.4310820  87.9730230  31.4319730
   1.9483140  87.3636290  32.7309930  12.1014610  88.0380060  28.4083850
  11.2274450  88.3715170  28.2056780  11.9925360  87.5653240  29.2335720
  13.0086590  90.2450930  29.7925570  12.6799950  89.4302690  29.4127300
  13.9568890  90.2020740  29.6691260   9.8489430  88.9549900  27.3476760
   9.0661220  89.4295400  27.6273520   9.5552360  88.0504730  27.2389940
  14.4010500  89.6573000  25.3925850  14.8418590  89.6018100  24.5447450
  14.1318090  90.5731010  25.4636030  16.2649070  89.2888240  23.4034670
  16.2037470  88.3449460  23.2565690  17.0441100  89.3968330  23.9488130
   7.7343650  91.3736650  22.8592790   6.9218160  90.9993540  22.5188670
   8.2385290  90.6181730  23.1613980  12.2368630  88.0379100  24.0975860
  12.8398000  88.6099310  24.5724380  11.4961620  88.6018540  23.8749760
  15.3803230  88.4400660  19.3716140  15.5753860  89.3384110  19.6383570
  14.5933100  88.2087740  19.8649090   3.5654990  89.7861430  18.4092450
   4.0947750  88.9991230  18.2800400   4.1983310  90.4652620  18.6427980
   5.7592830  89.5236570  21.4637840   5.1295570  88.8223880  21.6307970
   5.2197970  90.2840700  21.2471000   5.8848390  88.8020550  33.8990330
   5.6032660  89.3054150  33.1351150   6.2668090  88.0042300  33.5332460
  12.4863850  88.2174130  34.4770800  12.3729300  88.5368740  35.3722320
  13.3033590  88.6186640  34.1808080  11.3922000  96.2366600   4.8405540
  11.3116050  95.3221210   4.5697250  10.9786420  96.7333670   4.1345250
   9.5240040  98.0145620   6.7214810   8.7482140  97.5346060   7.0113380
  10.1752970  97.3351270   6.5470970   3.5405870  98.3265430   7.5990570
   2.7090750  98.0714140   7.9987080   4.1486850  98.3976200   8.3348490
   9.9954200  93.4973190   6.9553900  10.3719020  92.6245070   6.8427570
   9.8973710  93.8331890   6.0644340   4.1259210  91.8698820   2.4171340
   4.2325960  92.7702550   2.7240100   3.2151570  91.8216790   2.1265990
  13.7778320  90.9923630   3.8882240  14.5987940  90.5020200   3.9307720
  13.8112400  91.5821290   4.6414080   5.9666940  94.8385190   6.7496520
   6.4745160  95.3366160   7.3901540   6.4980180  94.0620390   6.5735880
  18.0677870  93.0090380  10.4525870  17.3630040  93.3972090   9.9340980
  18.3335790  93.7040670  11.0546800   4.2503040  89.4783750  11.0159940
   4.2521480  89.9956140  10.2105840   3.4207350  89.0013930  10.9929870
  14.0139800  92.9324010   6.6609780  13.3095370  93.2208900   7.2412890
  14.3751960  93.7424120   6.3009340   3.9318370  91.1893710   9.0230390
   4.2735180  92.0335760   8.7284260   2.9934180  91.3377450   9.1395730
  17.0826720  92.3778800   7.0518990  16.1351630  92.4117780   7.1834420
  17.4076710  93.1917750   7.4368350   7.6146260  88.6775980   5.3474980
   7.9221240  88.1222870   4.6310480   6.6846960  88.8120440   5.1647970
  10.0027020  96.7424810   2.0835100   9.0756300  96.6762190   2.3123570
  10.1551840  97.6804940   1.9690340  16.5108860  97.6960330   9.0581290
  15.6827490  97.7653420   8.5831420  17.1059340  98.2814640   8.5897120
  14.0324310  98.3045110   2.5870350  13.4136730  97.9664660   1.9396650
  14.0148760  97.6604870   3.2949540  13.4750870  94.4829650  10.0036160
  13.0622050  95.3083360  10.2576150  12.7426820  93.8974690   9.8112520
   5.6083660  97.2689550   4.8654830   5.2040660  96.5566800   4.3700730
   5.6946780  96.9242790   5.7542870   4.3212280  94.0432760   8.6453870
   4.8726870  94.1528100   7.8707120   4.8355790  94.4170360   9.3609100
   3.9955010  97.5652120  12.2559210   3.8562780  98.4374920  12.6246610
   3.1136370  97.2224930  12.1107150   2.3088290  96.1634530   2.3661480
   2.1885890  96.8896620   1.7542750   1.9989180  95.3937440   1.8889390
  17.0007440  93.5346230  13.8858280  16.3851710  94.0425900  13.3573740
  16.6803860  92.6344560  13.8284220   4.7751950  89.5069600   5.7485150
   4.3320100  90.2879140   5.4169670   5.3336940  89.8299490   6.4556090
   9.0621760  92.3738120  11.3520470   8.6001130  92.5821140  12.1640410
   8.6599870  91.5597470  11.0491140  14.0626270  93.5947070  12.4817130
  13.2119860  93.2952820  12.8026200  13.9028060  93.8389080  11.5700950
  11.1575980  95.0948820  14.5815920  11.4829390  94.2612570  14.2418150
  11.9456310  95.6177340  14.7294250   6.8127850  90.0516930   7.6074750
   7.1100180  90.9579760   7.5266770   7.3613410  89.5635710   6.9934320
   4.5666170  94.6303170   3.4766400   4.3407090  94.4140340   4.3813020
   3.7858700  95.0631630   3.1312370   7.0065380  95.5288750  14.1426670
   6.9108980  94.5883480  13.9927070   7.8497360  95.7503820  13.7474740
  10.4028800  93.2730080   4.1060330  10.7958370  93.5902280   3.2929020
  10.7645650  92.3941960   4.2204850   8.7120970  92.0237390  15.3657190
   8.0219290  91.8309590  16.0003280   9.4553270  92.3072030  15.8981490
  10.9883940  95.8635830   8.2011110  10.2565060  96.3722640   8.5501210
  10.5908280  95.0465810   7.8999890   7.4261330  92.5390030   6.6063600
   7.4297390  92.0979980   5.7568140   8.3212450  92.8607360   6.7135420
   3.2763710  92.4216520   5.5657810   2.9363760  92.8991750   6.3224860
   2.5141030  91.9681640   5.2058910  11.4509850  91.3169510   7.6134050
  11.4682590  91.7678160   8.4575900  11.2025430  90.4175150   7.8267490
  14.8780600  88.7301690  13.4520430  15.2026370  87.9991350  13.9778410
  14.9137110  88.4115330  12.5501420   7.7269300  96.5991810   8.3529010
   8.0939430  96.1250380   9.0990350   7.5374360  97.4733380   8.6937350
   5.5168670  95.6400450  10.6713220   5.2125740  96.5192430  10.8963580
   6.4715130  95.7000240  10.7070660   4.7745520  96.9387430  14.7024130
   4.4745660  97.0844610  13.8051950   5.5456760  96.3792720  14.6097520
   7.2475260  97.8667660   2.5627460   7.7038040  98.6772910   2.7887650
   6.8963470  97.5490800   3.3945950   3.1487040  88.2105310   3.0349980
   3.0201670  88.2023210   3.9834900   2.3249060  88.5488400   2.6840990
  11.6419750  92.4618740  10.2458130  12.0100570  91.6413950  10.5737700
  10.7817950  92.5220630  10.6613780   6.9765810  93.6961630   2.4703570
   6.2681960  94.1647970   2.9117180   7.2610290  93.0383640   3.1048760
   8.6021740  95.1158330  10.4696100   9.1006990  95.5904150  11.1347950
   8.7444690  94.1921850  10.6766130  11.0081240  90.4212290   3.9099360
  10.8849020  90.4398420   2.9608870  11.9565800  90.4691230   4.0297760
  15.8088600  91.3326290  11.3124490  15.3062200  92.0731690  11.6518300
  16.6245260  91.7210290  10.9961280  14.1010610  96.5759470   4.7585850
  13.1600750  96.5909700   4.9333540  14.4154680  95.7895430   5.2046150
   2.3332890  95.6548650  15.1328940   2.3738230  95.3562520  16.0414170
   3.1878390  96.0556260  14.9736460   4.2738700  94.2340750  13.1003430
   3.7435160  93.7431700  12.4726770   4.9426770  94.6624950  12.5661360
  13.6438930  96.0406370  14.8683770  14.2259700  95.2858690  14.7804250
  13.8200700  96.5713810  14.0915250   4.7611000  91.2003120  13.1800720
   4.6667870  90.5823870  12.4551590   4.1808390  91.9269410  12.9530630
   7.5272440  89.7576360  10.2128110   7.0789740  89.7800620   9.3673660
   6.8937640  89.3595380  10.8098410  10.2695890  96.3846870  12.2178390
  10.3892100  95.7888010  12.9573230  11.1289890  96.4216560  11.7979690
  12.6083790  96.9384060  10.7940900  12.0819010  97.4626680  10.1906040
  12.9515130  97.5711450  11.4250630   7.0364660  92.9268220  13.4754210
   7.6264350  92.6184070  14.1632030   6.2184900  92.4547970  13.6314110
  11.8558090  92.5434030  13.7087230  11.1673610  91.8815570  13.6437220
  12.5764110  92.0972300  14.1535690  16.8123720  96.6065750   2.5283350
  16.4367320  95.8393680   2.0964640  16.0826840  96.9888450   3.0158280
  16.2023340  95.7537270  12.1622870  15.9709430  95.5250020  11.2620820
  16.4627890  96.6736820  12.1167760  14.6411410  90.9793700  14.9402570
  15.5181590  90.9877100  15.3236570  14.6532250  90.2424540  14.3294920
  16.0874680  94.8323240   5.8290590  16.6112160  94.3385890   5.1980760
  16.6734100  94.9673600   6.5738160  16.2664400  94.9163110   9.3510140
  15.3167110  94.8826650   9.4655130  16.4477410  95.8263220   9.1159910
  15.5774650  94.0896590   1.7683000  16.0733770  93.8567460   2.5531880
  15.3790720  93.2508430   1.3520640  17.0061810  92.7257540   4.3020680
  16.8961090  92.5713580   5.2402950  17.7669400  92.1978480   4.0596090
  15.3527530  88.6651670  10.7603680  15.9899750  89.2785810  11.1262870
  15.5002420  88.7012330   9.8152910   8.7232010  89.8177860  13.6678780
   8.6620900  90.4099690  14.4174190   9.6632390  89.7103820  13.5229040
  11.3606570  89.4747920  13.3071070  11.9746980  89.7927210  12.6452150
  11.9056130  88.9896510  13.9266930   1.8827830  88.1542180  13.4210130
   2.4310820  87.9730230  12.6576240   1.9483140  87.3636290  13.9566440
  12.1014610  88.0380060   9.6340360  11.2274450  88.3715170   9.4313290
  11.9925360  87.5653240  10.4592230  13.0086590  90.2450930  11.0182080
  12.6799950  89.4302690  10.6383810  13.9568890  90.2020740  10.8947770
   9.8489430  88.9549900   8.5733270   9.0661220  89.4295400   8.8530030
   9.5552360  88.0504730   8.4646450  14.4010500  89.6573000   6.6182360
  14.8418590  89.6018100   5.7703960  14.1318090  90.5731010   6.6892540
  16.2649070  89.2888240   4.6291180  16.2037470  88.3449460   4.4822200
  17.0441100  89.3968330   5.1744640   7.7343650  91.3736650   4.0849300
   6.9218160  90.9993540   3.7445180   8.2385290  90.6181730   4.3870490
  12.2368630  88.0379100   5.3232370  12.8398000  88.6099310   5.7980890
  11.4961620  88.6018540   5.1006270   5.7592830  89.5236570   2.6894350
   5.1295570  88.8223880   2.8564480   5.2197970  90.2840700   2.4727510
   5.8848390  88.8020550  15.1246840   5.6032660  89.3054150  14.3607660
   6.2668090  88.0042300  14.7588970  12.4863850  88.2174130  15.7027310
  12.3729300  88.5368740  16.5978830  13.3033590  88.6186640  15.4064590
  11.3922000  77.4623110  61.1636010  11.3116050  76.5477720  60.8927720
  10.9786420  77.9590180  60.4575720   9.5240040  79.2402130  63.0445280
   8.7482140  78.7602570  63.3343850  10.1752970  78.5607780  62.8701440
   3.5405870  79.5521940  63.9221040   2.7090750  79.2970650  64.3217550
   4.1486850  79.6232710  64.6578960  13.5447470  83.6462320  61.8244410
  13.0829000  82.8749560  62.1531580  14.3573020  83.6728390  62.3296860
   3.5207130  83.5862030  64.1179060   3.8235170  82.6959770  63.9389280
   4.2650720  84.1432250  63.8901310   9.7710780  85.9320330  61.4448400
   9.1522220  86.3877830  60.8742840  10.6262560  86.0871790  61.0438100
   8.9649030  81.9159320  63.0515440   8.8957310  80.9749260  62.8904570
   9.7268890  82.0060730  63.6238010   9.9954200  74.7229700  63.2784370
  10.3719020  73.8501580  63.1658040   9.8973710  75.0588400  62.3874810
   4.1259210  73.0955330  58.7401810   4.2325960  73.9959060  59.0470570
   3.2151570  73.0473300  58.4496460  13.7778320  72.2180140  60.2112710
  14.5987940  71.7276710  60.2538190  13.8112400  72.8077800  60.9644550
   5.9666940  76.0641700  63.0726990   6.4745160  76.5622670  63.7132010
   6.4980180  75.2876900  62.8966350  18.0677870  74.2346890  66.7756340
  17.3630040  74.6228600  66.2571450  18.3335790  74.9297180  67.3777270
   4.2503040  70.7040260  67.3390410   4.2521480  71.2212650  66.5336310
   3.4207350  70.2270440  67.3160340  10.6374130  80.8159570  58.8380310
  10.0191400  81.2809020  58.2743030  11.1497380  81.5087050  59.2549820
   5.5005890  80.3435440  65.5163910   5.1675270  80.9704360  66.1584980
   5.6772570  80.8697320  64.7365580  14.0139800  74.1580520  62.9840250
  13.3095370  74.4465410  63.5643360  14.3751960  74.9680630  62.6239810
   3.9318370  72.4150220  65.3460860   4.2735180  73.2592270  65.0514730
   2.9934180  72.5633960  65.4626200   4.7124990  82.3116240  67.3313090
   5.3298990  82.9867320  67.0497540   3.8518110  82.7204220  67.2400590
  15.6302580  83.7755650  65.2467730  14.9466100  84.4454760  65.2384400
  16.1696870  83.9736300  64.4812590  17.0826720  73.6035310  63.3749460
  16.1351630  73.6374290  63.5064890  17.4076710  74.4174260  63.7598820
   7.6146260  69.9032490  61.6705450   7.9221240  69.3479380  60.9540950
   6.6846960  70.0376950  61.4878440  13.1661320  85.6199780  63.9612910
  13.1788480  85.2162070  63.0935170  12.6136540  86.3947070  63.8574340
  14.4606740  82.3416000  59.0503080  14.3503070  81.3990330  59.1752500
  14.4574990  82.7031640  59.9365840  12.5646760  80.5229620  65.2895520
  12.9815550  80.3089730  64.4548980  13.2886580  80.7802410  65.8604140
  10.0027020  77.9681320  58.4065570   9.0756300  77.9018700  58.6354040
  10.1551840  78.9061450  58.2920810   9.9896100  74.2398320  55.4032730
   9.0499770  74.4012280  55.4885190  10.3079360  74.9584000  54.8568720
  16.5108860  78.9216840  65.3811760  15.6827490  78.9909930  64.9061890
  17.1059340  79.5071150  64.9127590  14.0324310  79.5301620  58.9100820
  13.4136730  79.1921170  58.2627120  14.0148760  78.8861380  59.6180010
  13.4750870  75.7086160  66.3266630  13.0622050  76.5339870  66.5806620
  12.7426820  75.1231200  66.1342990   5.6083660  78.4946060  61.1885300
   5.2040660  77.7823310  60.6931200   5.6946780  78.1499300  62.0773340
   6.0765360  82.1813620  63.3524510   5.7793650  81.5759090  62.6732290
   7.0265180  82.2190930  63.2413870   4.3212280  75.2689270  64.9684340
   4.8726870  75.3784610  64.1937590   4.8355790  75.6426870  65.6839570
  14.1650970  85.7545490  67.0147610  13.6881530  86.5617680  66.8220220
  13.4812760  85.1023820  67.1673820  12.2089010  78.7688430  55.9173570
  12.6482290  77.9310860  55.7711390  12.9217430  79.4017830  56.0037710
  10.3184390  83.7084500  59.8854810  10.7580300  84.4508830  59.4710200
  10.2571280  83.9511070  60.8093770  15.7906150  70.0231240  54.2314610
  15.4778810  70.1158070  55.1313680  16.5518620  70.6012270  54.1812040
   2.3088290  77.3891040  58.6891950   2.1885890  78.1153130  58.0773220
   1.9989180  76.6193950  58.2119860  12.9854570  86.6953620  57.2417820
  12.8255710  86.4056560  58.1399650  12.8201280  85.9193750  56.7063050
   5.4642950  86.4752150  59.0189440   5.2885430  85.5587690  58.8057240
   4.6098690  86.8339440  59.2587240  12.6880700  84.2041180  55.8015820
  11.9945860  84.2018470  55.1418100  13.4303560  83.7800500  55.3709990
  12.2530630  85.8303890  59.8764310  12.7087580  85.0493270  60.1902930
  12.5923150  86.5410710  60.4205490   4.7751950  70.7326110  62.0715620
   4.3320100  71.5135650  61.7400140   5.3336940  71.0556000  62.7786560
   7.8910770  70.3536810  56.9521450   7.2664950  70.3496680  57.6774760
   7.8040890  69.4867770  56.5557420   6.8127850  71.2773440  63.9305220
   7.1100180  72.1836270  63.8497240   7.3613410  70.7892220  63.3164790
   4.5666170  75.8559680  59.7996870   4.3407090  75.6396850  60.7043490
   3.7858700  76.2888140  59.4542840  11.7963930  75.8623050  58.3987520
  11.1972820  76.5858850  58.2151140  12.3443540  75.7999830  57.6163970
  10.4028800  74.4986590  60.4290800  10.7958370  74.8158790  59.6159490
  10.7645650  73.6198470  60.5435320  10.9883940  77.0892340  64.5241580
  10.2565060  77.5979150  64.8731680  10.5908280  76.2722320  64.2230360
   7.4261330  73.7646540  62.9294070   7.4297390  73.3236490  62.0798610
   8.3212450  74.0863870  63.0365890   3.2763710  73.6473030  61.8888280
   2.9363760  74.1248260  62.6455330   2.5141030  73.1938150  61.5289380
   7.4881480  74.7658620  55.9200830   7.6094300  74.7245100  56.8686650
   7.1029990  75.6282770  55.7647560  11.4509850  72.5426020  63.9364520
  11.4682590  72.9934670  64.7806370  11.2025430  71.6431660  64.1497960
   6.5002980  77.0759760  55.3184130   5.9319880  76.6278010  54.6920040
   7.2091980  77.4352540  54.7849280   7.7269300  77.8248320  64.6759480
   8.0939430  77.3506890  65.4220820   7.5374360  78.6989890  65.0167820
   5.5168670  76.8656960  66.9943690   5.2125740  77.7448940  67.2194050
   6.4715130  76.9256750  67.0301130   4.0450460  81.0717950  57.5910540
   3.2712720  80.5315570  57.4309260   4.7745090  80.5524560  57.2528300
  14.8038440  80.0683310  63.3836930  15.5237560  80.5638600  62.9933040
  14.6020260  79.3901200  62.7390800  10.2648380  71.4621270  57.5266320
   9.4512990  70.9634440  57.4511630  10.0710330  72.3019520  57.1102670
  12.9796770  75.8340920  55.8228480  13.8676390  76.1458150  55.6479820
  12.9501860  74.9613170  55.4309060   4.0887860  80.7398330  61.2289350
   4.6066530  79.9366590  61.1746240   3.6371880  80.6777470  62.0706180
   8.9757360  82.0064610  56.5016650   9.3173060  82.7506840  56.0059970
   8.1470070  82.3195730  56.8641480  15.2511040  77.1452760  55.2908340
  15.1674760  77.5766980  54.4404780  15.9705230  77.6051110  55.7235160
  16.2798290  83.9995020  58.0190470  15.6374450  83.3450640  58.2934190
  15.8928950  84.4050110  57.2431140  11.8584770  81.3280450  61.8662160
  12.2108590  80.7308580  61.2063530  10.9747100  81.0024680  62.0370410
   7.9448050  82.0878140  59.2732570   8.6319180  82.6347350  59.6540160
   7.1580470  82.6318870  59.3082180   7.2475260  79.0924170  58.8857930
   7.7038040  79.9029420  59.1118120   6.8963470  78.7747310  59.7176420
   9.5507870  84.6030510  66.1150230  10.1950090  84.8089890  66.7923650
   9.9137310  83.8418910  65.6621080   3.1487040  69.4361820  59.3580450
   3.0201670  69.4279720  60.3065370   2.3249060  69.7744910  59.0071460
  10.8239950  82.6062860  64.8327680  11.4662180  81.9056020  64.9459850
  11.3489300  83.3861300  64.6524570  14.6695670  82.8911480  54.5566820
  14.4433250  82.1741920  55.1491460  14.2791870  82.6423920  53.7188570
  14.2511920  80.8083420  56.2180980  13.9633620  81.2696110  57.0058860
  15.0464090  80.3481190  56.4865200   6.4680320  84.3009540  56.1484950
   6.4590420  85.0339230  55.5329460   5.5478680  84.0541120  56.2411910
  11.6419750  73.6875250  66.5688600  12.0100570  72.8670460  66.8968170
  10.7817950  73.7477140  66.9844250  15.0081780  72.6432190  57.3776160
  14.3794940  72.7477860  56.6634390  14.5133700  72.8628970  58.1670040
   9.4539920  84.3637780  54.8110140   9.5551900  84.1601770  53.8812120
   8.5541660  84.1096060  55.0157920   6.9765810  74.9218140  58.7934040
   6.2681960  75.3904480  59.2347650   7.2610290  74.2640150  59.4279230
   8.6021740  76.3414840  66.7926570   9.1006990  76.8160660  67.4578420
   8.7444690  75.4178360  66.9996600  11.0081240  71.6468800  60.2329830
  10.8849020  71.6654930  59.2839340  11.9565800  71.6947740  60.3528230
   8.0958030  86.8824100  59.5057810   8.3499530  86.8445490  58.5837180
   7.1470510  86.7557430  59.4986060   5.1800830  73.2303220  56.1684750
   6.0291360  73.6673370  56.1024940   4.8132100  73.5423480  56.9956810
  14.1010610  77.8015980  61.0816320  13.1600750  77.8166210  61.2564010
  14.4154680  77.0151940  61.5276620   4.0792250  79.4835580  54.6420280
   4.8455520  79.3716940  55.2045710   4.1566940  78.7873550  53.9897050
   2.7739010  76.9160650  55.3253170   2.8542600  75.9688160  55.4370570
   3.6658760  77.2467530  55.4313830  16.1036190  84.9724830  62.7570580
  16.2283610  85.7956000  63.2294390  16.9701750  84.7615560  62.4094730
   3.5753720  87.0656040  62.4287710   4.3116200  86.5171500  62.6996280
   3.9594640  87.9312050  62.2893700   6.6856030  86.2386350  54.2513280
   7.4784640  86.5275180  53.7995070   6.1660380  85.8078520  53.5725760
  15.7386200  85.4656480  55.6750020  15.4527710  85.0521620  54.8604200
  15.5405750  86.3944190  55.5550540   7.2033430  81.4589760  54.1155630
   7.0984070  80.8442110  54.8417010   7.0357650  80.9355650  53.3318640
  10.4436160  80.5209790  54.7197620   9.8946260  80.9679090  55.3640360
  11.0655420  80.0159040  55.2435290   6.1111280  79.4800710  56.6162920
   6.5327700  79.3140580  57.4594310   6.2362120  78.6700940  56.1218060
   8.6238920  78.5038320  53.8640020   9.1444580  77.7887340  53.4981170
   9.2707320  79.1424190  54.1640530   7.5272440  70.9832870  66.5358580
   7.0789740  71.0057130  65.6904130   6.8937640  70.5851890  67.1328880
   7.9331990  79.8787200  67.1571020   8.3520100  80.7219930  66.9847260
   7.0140620  80.0159240  66.9277800  12.6083790  78.1640570  67.1171370
  12.0819010  78.6883190  66.5136510  12.9515130  78.7967960  67.7481100
   5.0070180  75.5533940  53.5621080   4.8059240  74.6901300  53.9234420
   4.8362230  75.4667300  52.6242680  12.4858490  70.3642170  56.0907960
  12.7660780  69.5210070  56.4467380  11.7124220  70.5965280  56.6046710
   3.8052980  72.6534560  53.5498960   4.1078880  72.6601990  52.6418110
   4.5447570  72.3032420  54.0466620   7.0237910  71.5969180  54.5355160
   6.6759910  70.9193170  53.9557610   7.2250680  71.1358690  55.3498550
   9.1886950  86.5849930  56.1541760  10.0837740  86.9234900  56.1760520
   9.2204580  85.8629340  55.5266040   2.8283110  81.9576980  54.3828760
   3.2657980  82.5006650  55.0386340   3.3130840  81.1323930  54.3925100
   4.6390830  83.0775020  59.4950990   4.3386370  82.9539990  60.3954900
   4.5328320  82.2183610  59.0866720  17.4082750  82.8571420  54.1977670
  16.5775710  82.9248070  54.6684900  17.5854580  83.7475540  53.8944530
  16.8639210  79.6018900  56.7011870  17.6258120  80.1715550  56.8071560
  16.8793580  79.0346100  57.4720180  17.8699180  80.4569000  61.5453800
  18.2408010  79.6736320  61.1389770  18.5101110  81.1458100  61.3671100
  14.8532940  81.8405580  66.9584120  14.0392780  82.2702740  67.2209910
  15.2607140  82.4523990  66.3453170  16.9158380  79.8953270  53.8584390
  17.1907220  80.8032150  53.7303610  16.7269120  79.8315800  54.7946380
  13.3133990  72.9198120  55.1538020  13.7318870  72.7329100  54.3134680
  13.0070050  72.0677170  55.4640950  16.8123720  77.8322260  58.8513820
  16.4367320  77.0650190  58.4195110  16.0826840  78.2144960  59.3388750
  16.0874680  76.0579750  62.1521060  16.6112160  75.5642400  61.5211230
  16.6734100  76.1930110  62.8968630  16.2664400  76.1419620  65.6740610
  15.3167110  76.1083160  65.7885600  16.4477410  77.0519730  65.4390380
   1.7683000  70.4460630  53.8241890   2.4911130  70.9869570  54.1423110
   2.0407520  70.1724050  52.9483430  15.5774650  75.3153100  58.0913470
  16.0733770  75.0823970  58.8762350  15.3790720  74.4764940  57.6751110
  17.0061810  73.9514050  60.6251150  16.8961090  73.7970090  61.5633420
  17.7669400  73.4234990  60.3826560  15.3527530  69.8908180  67.0834150
  15.9899750  70.5042320  67.4493340  15.5002420  69.9268840  66.1383380
  17.8952080  71.7821970  53.8657290  18.8201390  71.6503150  53.6575580
  17.8727870  71.8614790  54.8193740  17.9690570  72.5532630  56.4914000
  17.1742070  72.4877750  57.0206910  18.1733850  73.4883270  56.4799350
  14.9108990  86.5924180  60.4852390  15.5068060  86.2708750  59.8086810
  15.1687140  86.1196000  61.2765660   6.5177590  84.5801680  66.2352740
   6.2768950  84.8476240  65.3483260   7.4580230  84.7507410  66.2903600
  17.7781750  86.5996060  67.0363380  17.2840030  86.9964930  66.3190510
  17.1695040  85.9745270  67.4300660  12.1014610  69.2636570  65.9570830
  11.2274450  69.5971680  65.7543760  11.9925360  68.7909750  66.7822700
  13.0086590  71.4707440  67.3412550  12.6799950  70.6559200  66.9614280
  13.9568890  71.4277250  67.2178240  15.4621200  87.2419480  64.3150120
  15.0024170  87.9935290  63.9408140  14.8333660  86.5225950  64.2564920
   5.8916920  85.5507720  63.4898250   6.4081940  84.9395080  62.9646510
   6.5414300  86.0536500  63.9809260   8.6312420  86.4416210  64.3167230
   8.9190230  86.1870510  63.4400240   9.1435640  85.8893570  64.9072800
   9.8489430  70.1806410  64.8963740   9.0661220  70.6551910  65.1760500
   9.5552360  69.2761240  64.7876920  14.4010500  70.8829510  62.9412830
  14.8418590  70.8274610  62.0934430  14.1318090  71.7987520  63.0123010
  16.2649070  70.5144750  60.9521650  16.2037470  69.5705970  60.8052670
  17.0441100  70.6224840  61.4975110   7.7343650  72.5993160  60.4079770
   6.9218160  72.2250050  60.0675650   8.2385290  71.8438240  60.7100960
  12.2368630  69.2635610  61.6462840  12.8398000  69.8355820  62.1211360
  11.4961620  69.8275050  61.4236740  15.3803230  69.6657170  56.9203120
  15.5753860  70.5640620  57.1870550  14.5933100  69.4344250  57.4136070
   3.5654990  71.0117940  55.9579430   4.0947750  70.2247740  55.8287380
   4.1983310  71.6909130  56.1914960   5.7592830  70.7493080  59.0124820
   5.1295570  70.0480390  59.1794950   5.2197970  71.5097210  58.7957980
  16.9329840  86.9057880  58.6809680  17.1082030  86.2195620  58.0370600
  16.2351410  87.4304930  58.2886350   4.7757490  87.2952720  56.2344990
   5.5076310  87.0112000  55.6868880   5.0351160  87.0566000  57.1244370
   3.9372280  83.4117450  56.2391320   3.3081160  83.8802550  56.7877150
   4.0520110  82.5666670  56.6737510  11.3922000  77.4623110  42.3892520
  11.3116050  76.5477720  42.1184230  10.9786420  77.9590180  41.6832230
   9.5240040  79.2402130  44.2701790   8.7482140  78.7602570  44.5600360
  10.1752970  78.5607780  44.0957950   3.5405870  79.5521940  45.1477550
   2.7090750  79.2970650  45.5474060   4.1486850  79.6232710  45.8835470
  13.5447470  83.6462320  43.0500920  13.0829000  82.8749560  43.3788090
  14.3573020  83.6728390  43.5553370   3.5207130  83.5862030  45.3435570
   3.8235170  82.6959770  45.1645790   4.2650720  84.1432250  45.1157820
   9.7710780  85.9320330  42.6704910   9.1522220  86.3877830  42.0999350
  10.6262560  86.0871790  42.2694610   8.9649030  81.9159320  44.2771950
   8.8957310  80.9749260  44.1161080   9.7268890  82.0060730  44.8494520
   9.9954200  74.7229700  44.5040880  10.3719020  73.8501580  44.3914550
   9.8973710  75.0588400  43.6131320   4.1259210  73.0955330  39.9658320
   4.2325960  73.9959060  40.2727080   3.2151570  73.0473300  39.6752970
  13.7778320  72.2180140  41.4369220  14.5987940  71.7276710  41.4794700
  13.8112400  72.8077800  42.1901060   5.9666940  76.0641700  44.2983500
   6.4745160  76.5622670  44.9388520   6.4980180  75.2876900  44.1222860
  18.0677870  74.2346890  48.0012850  17.3630040  74.6228600  47.4827960
  18.3335790  74.9297180  48.6033780   4.2503040  70.7040260  48.5646920
   4.2521480  71.2212650  47.7592820   3.4207350  70.2270440  48.5416850
  10.6374130  80.8159570  40.0636820  10.0191400  81.2809020  39.4999540
  11.1497380  81.5087050  40.4806330   5.5005890  80.3435440  46.7420420
   5.1675270  80.9704360  47.3841490   5.6772570  80.8697320  45.9622090
  14.0139800  74.1580520  44.2096760  13.3095370  74.4465410  44.7899870
  14.3751960  74.9680630  43.8496320   3.9318370  72.4150220  46.5717370
   4.2735180  73.2592270  46.2771240   2.9934180  72.5633960  46.6882710
   4.7124990  82.3116240  48.5569600   5.3298990  82.9867320  48.2754050
   3.8518110  82.7204220  48.4657100  15.6302580  83.7755650  46.4724240
  14.9466100  84.4454760  46.4640910  16.1696870  83.9736300  45.7069100
  17.0826720  73.6035310  44.6005970  16.1351630  73.6374290  44.7321400
  17.4076710  74.4174260  44.9855330   7.6146260  69.9032490  42.8961960
   7.9221240  69.3479380  42.1797460   6.6846960  70.0376950  42.7134950
  13.1661320  85.6199780  45.1869420  13.1788480  85.2162070  44.3191680
  12.6136540  86.3947070  45.0830850  14.4606740  82.3416000  40.2759590
  14.3503070  81.3990330  40.4009010  14.4574990  82.7031640  41.1622350
  12.5646760  80.5229620  46.5152030  12.9815550  80.3089730  45.6805490
  13.2886580  80.7802410  47.0860650  10.0027020  77.9681320  39.6322080
   9.0756300  77.9018700  39.8610550  10.1551840  78.9061450  39.5177320
   9.9896100  74.2398320  36.6289240   9.0499770  74.4012280  36.7141700
  10.3079360  74.9584000  36.0825230  16.5108860  78.9216840  46.6068270
  15.6827490  78.9909930  46.1318400  17.1059340  79.5071150  46.1384100
  14.0324310  79.5301620  40.1357330  13.4136730  79.1921170  39.4883630
  14.0148760  78.8861380  40.8436520  13.4750870  75.7086160  47.5523140
  13.0622050  76.5339870  47.8063130  12.7426820  75.1231200  47.3599500
   5.6083660  78.4946060  42.4141810   5.2040660  77.7823310  41.9187710
   5.6946780  78.1499300  43.3029850   6.0765360  82.1813620  44.5781020
   5.7793650  81.5759090  43.8988800   7.0265180  82.2190930  44.4670380
   4.3212280  75.2689270  46.1940850   4.8726870  75.3784610  45.4194100
   4.8355790  75.6426870  46.9096080  14.1650970  85.7545490  48.2404120
  13.6881530  86.5617680  48.0476730  13.4812760  85.1023820  48.3930330
   5.1683790  81.9195310  51.2288820   4.2712320  82.1435280  51.4762220
   5.1936660  82.0430250  50.2800220  12.2089010  78.7688430  37.1430080
  12.6482290  77.9310860  36.9967900  12.9217430  79.4017830  37.2294220
   3.9955010  78.7908630  49.8046190   3.8562780  79.6631430  50.1733590
   3.1136370  78.4481440  49.6594130  10.3184390  83.7084500  41.1111320
  10.7580300  84.4508830  40.6966710  10.2571280  83.9511070  42.0350280
   5.7935360  84.7330330  52.0131340   5.7650790  85.1373280  51.1459770
   5.6300330  83.8040690  51.8502940  15.7906150  70.0231240  35.4571120
  15.4778810  70.1158070  36.3570190  16.5518620  70.6012270  35.4068550
   2.3088290  77.3891040  39.9148460   2.1885890  78.1153130  39.3029730
   1.9989180  76.6193950  39.4376370  17.7450180  85.5157430  53.3095510
  18.2209900  85.9940320  53.9884590  18.3657340  85.4474920  52.5841010
  17.1483430  82.7070280  50.4695520  17.2746490  82.4682160  49.5512700
  17.1904810  81.8754820  50.9417600  11.0100170  86.4098280  49.0390330
  11.5244840  86.3206290  49.8412760  10.1669250  86.7557980  49.3318240
  12.9854570  86.6953620  38.4674330  12.8255710  86.4056560  39.3656160
  12.8201280  85.9193750  37.9319560   5.4642950  86.4752150  40.2445950
   5.2885430  85.5587690  40.0313750   4.6098690  86.8339440  40.4843750
  12.6880700  84.2041180  37.0272330  11.9945860  84.2018470  36.3674610
  13.4303560  83.7800500  36.5966500  12.2530630  85.8303890  41.1020820
  12.7087580  85.0493270  41.4159440  12.5923150  86.5410710  41.6462000
  17.0007440  74.7602740  51.4345260  16.3851710  75.2682410  50.9060720
  16.6803860  73.8601070  51.3771200   4.7751950  70.7326110  43.2972130
   4.3320100  71.5135650  42.9656650   5.3336940  71.0556000  44.0043070
   9.0621760  73.5994630  48.9007450   8.6001130  73.8077650  49.7127390
   8.6599870  72.7853980  48.5978120  14.0626270  74.8203580  50.0304110
  13.2119860  74.5209330  50.3513180  13.9028060  75.0645590  49.1187930
  11.1575980  76.3205330  52.1302900  11.4829390  75.4869080  51.7905130
  11.9456310  76.8433850  52.2781230   7.8910770  70.3536810  38.1777960
   7.2664950  70.3496680  38.9031270   7.8040890  69.4867770  37.7813930
   6.8127850  71.2773440  45.1561730   7.1100180  72.1836270  45.0753750
   7.3613410  70.7892220  44.5421300   4.5666170  75.8559680  41.0253380
   4.3407090  75.6396850  41.9300000   3.7858700  76.2888140  40.6799350
  11.7963930  75.8623050  39.6244030  11.1972820  76.5858850  39.4407650
  12.3443540  75.7999830  38.8420480   7.0065380  76.7545260  51.6913650
   6.9108980  75.8139990  51.5414050   7.8497360  76.9760330  51.2961720
  10.4028800  74.4986590  41.6547310  10.7958370  74.8158790  40.8416000
  10.7645650  73.6198470  41.7691830   8.7120970  73.2493900  52.9144170
   8.0219290  73.0566100  53.5490260   9.4553270  73.5328540  53.4468470
  10.9883940  77.0892340  45.7498090  10.2565060  77.5979150  46.0988190
  10.5908280  76.2722320  45.4486870   7.4261330  73.7646540  44.1550580
   7.4297390  73.3236490  43.3055120   8.3212450  74.0863870  44.2622400
   3.2763710  73.6473030  43.1144790   2.9363760  74.1248260  43.8711840
   2.5141030  73.1938150  42.7545890   7.4881480  74.7658620  37.1457340
   7.6094300  74.7245100  38.0943160   7.1029990  75.6282770  36.9904070
  11.4509850  72.5426020  45.1621030  11.4682590  72.9934670  46.0062880
  11.2025430  71.6431660  45.3754470   6.5002980  77.0759760  36.5440640
   5.9319880  76.6278010  35.9176550   7.2091980  77.4352540  36.0105790
  14.8780600  69.9558200  51.0007410  15.2026370  69.2247860  51.5265390
  14.9137110  69.6371840  50.0988400   7.7269300  77.8248320  45.9015990
   8.0939430  77.3506890  46.6477330   7.5374360  78.6989890  46.2424330
   5.5168670  76.8656960  48.2200200   5.2125740  77.7448940  48.4450560
   6.4715130  76.9256750  48.2557640   4.0450460  81.0717950  38.8167050
   3.2712720  80.5315570  38.6565770   4.7745090  80.5524560  38.4784810
  14.8038440  80.0683310  44.6093440  15.5237560  80.5638600  44.2189550
  14.6020260  79.3901200  43.9647310  10.2648380  71.4621270  38.7522830
   9.4512990  70.9634440  38.6768140  10.0710330  72.3019520  38.3359180
  10.1857240  80.1392370  50.4962440  10.1194550  79.2188040  50.2420030
   9.5562380  80.2367810  51.2107080  12.9796770  75.8340920  37.0484990
  13.8676390  76.1458150  36.8736330  12.9501860  74.9613170  36.6565570
   4.0887860  80.7398330  42.4545860   4.6066530  79.9366590  42.4002750
   3.6371880  80.6777470  43.2962690   8.9757360  82.0064610  37.7273160
   9.3173060  82.7506840  37.2316480   8.1470070  82.3195730  38.0897990
   4.7745520  78.1643940  52.2511110   4.4745660  78.3101120  51.3538930
   5.5456760  77.6049230  52.1584500  10.1173970  82.9612940  50.2466240
  10.1318510  82.0293900  50.0285150   9.4099070  83.0472700  50.8856010
  15.2511040  77.1452760  36.5164850  15.1674760  77.5766980  35.6661290
  15.9705230  77.6051110  36.9491670  16.3285180  79.6020280  49.5934820
  15.6033370  80.1949060  49.3964210  16.8560640  79.5943820  48.7948190
  16.2798290  83.9995020  39.2446980  15.6374450  83.3450640  39.5190700
  15.8928950  84.4050110  38.4687650  11.8584770  81.3280450  43.0918670
  12.2108590  80.7308580  42.4320040  10.9747100  81.0024680  43.2626920
   7.9448050  82.0878140  40.4989080   8.6319180  82.6347350  40.8796670
   7.1580470  82.6318870  40.5338690   7.2475260  79.0924170  40.1114440
   7.7038040  79.9029420  40.3374630   6.8963470  78.7747310  40.9432930
   9.5507870  84.6030510  47.3406740  10.1950090  84.8089890  48.0180160
   9.9137310  83.8418910  46.8877590   3.1487040  69.4361820  40.5836960
   3.0201670  69.4279720  41.5321880   2.3249060  69.7744910  40.2327970
  10.8239950  82.6062860  46.0584190  11.4662180  81.9056020  46.1716360
  11.3489300  83.3861300  45.8781080  14.6695670  82.8911480  35.7823330
  14.4433250  82.1741920  36.3747970  14.2791870  82.6423920  34.9445080
  12.5977570  83.4057760  49.2620250  12.9333810  83.9924450  49.9398170
  11.6777910  83.2750470  49.4918040  14.2511920  80.8083420  37.4437490
  13.9633620  81.2696110  38.2315370  15.0464090  80.3481190  37.7121710
   8.4266150  83.4549090  52.4308310   8.1063020  82.7358330  52.9754000
   7.7524510  84.1304160  52.5044370   6.4680320  84.3009540  37.3741460
   6.4590420  85.0339230  36.7585970   5.5478680  84.0541120  37.4668420
  11.6419750  73.6875250  47.7945110  12.0100570  72.8670460  48.1224680
  10.7817950  73.7477140  48.2100760  15.0081780  72.6432190  38.6032670
  14.3794940  72.7477860  37.8890900  14.5133700  72.8628970  39.3926550
   9.4539920  84.3637780  36.0366650   9.5551900  84.1601770  35.1068630
   8.5541660  84.1096060  36.2414430   6.9765810  74.9218140  40.0190550
   6.2681960  75.3904480  40.4604160   7.2610290  74.2640150  40.6535740
   8.6021740  76.3414840  48.0183080   9.1006990  76.8160660  48.6834930
   8.7444690  75.4178360  48.2253110  11.0081240  71.6468800  41.4586340
  10.8849020  71.6654930  40.5095850  11.9565800  71.6947740  41.5784740
   8.0958030  86.8824100  40.7314320   8.3499530  86.8445490  39.8093690
   7.1470510  86.7557430  40.7242570   5.1800830  73.2303220  37.3941260
   6.0291360  73.6673370  37.3281450   4.8132100  73.5423480  38.2213320
  15.8088600  72.5582800  48.8611470  15.3062200  73.2988200  49.2005280
  16.6245260  72.9466800  48.5448260  14.1010610  77.8015980  42.3072830
  13.1600750  77.8166210  42.4820520  14.4154680  77.0151940  42.7533130
   4.0792250  79.4835580  35.8676790   4.8455520  79.3716940  36.4302220
   4.1566940  78.7873550  35.2153560   2.7739010  76.9160650  36.5509680
   2.8542600  75.9688160  36.6627080   3.6658760  77.2467530  36.6570340
  16.1036190  84.9724830  43.9827090  16.2283610  85.7956000  44.4550900
  16.9701750  84.7615560  43.6351240   3.5753720  87.0656040  43.6544220
   4.3116200  86.5171500  43.9252790   3.9594640  87.9312050  43.5150210
   2.5812000  86.2502110  52.8429800   3.3824730  86.5714160  53.2565200
   2.0663820  85.8897690  53.5649710   6.6856030  86.2386350  35.4769790
   7.4784640  86.5275180  35.0251580   6.1660380  85.8078520  34.7982270
  11.4176630  82.3581980  52.7905210  10.8114790  82.3813580  52.0500960
  11.1130740  81.6265020  53.3272460  12.8477000  86.0862270  51.4014620
  13.7998750  86.0020290  51.3514860  12.7005220  86.7503980  52.0748410
  15.7386200  85.4656480  36.9006530  15.4527710  85.0521620  36.0860710
  15.5405750  86.3944190  36.7807050   7.2033430  81.4589760  35.3412140
   7.0984070  80.8442110  36.0673520   7.0357650  80.9355650  34.5575150
   7.3547750  80.1446560  51.3201370   6.5893420  80.7131560  51.2356040
   7.5363710  79.8522770  50.4269600  10.4436160  80.5209790  35.9454130
   9.8946260  80.9679090  36.5896870  11.0655420  80.0159040  36.4691800
  14.4971100  81.8751890  51.8776390  15.2380570  82.2127650  51.3743850
  13.7343780  82.0443950  51.3246160   2.3332890  76.8805160  52.6815920
   2.3738230  76.5819030  53.5901150   3.1878390  77.2812770  52.5223440
   6.1111280  79.4800710  37.8419430   6.5327700  79.3140580  38.6850820
   6.2362120  78.6700940  37.3474570   4.2738700  75.4597260  50.6490410
   3.7435160  74.9688210  50.0213750   4.9426770  75.8881460  50.1148340
   8.6238920  78.5038320  35.0896530   9.1444580  77.7887340  34.7237680
   9.2707320  79.1424190  35.3897040  13.1716760  79.9266720  50.4131600
  13.5857780  80.0811800  51.2622020  12.2367760  80.0521940  50.5757380
  13.6438930  77.2662880  52.4170750  14.2259700  76.5115200  52.3291230
  13.8200700  77.7970320  51.6402230   4.7611000  72.4259630  50.7287700
   4.6667870  71.8080380  50.0038570   4.1808390  73.1525920  50.5017610
   7.5272440  70.9832870  47.7615090   7.0789740  71.0057130  46.9160640
   6.8937640  70.5851890  48.3585390   7.9331990  79.8787200  48.3827530
   8.3520100  80.7219930  48.2103770   7.0140620  80.0159240  48.1534310
  10.2695890  77.6103380  49.7665370  10.3892100  77.0144520  50.5060210
  11.1289890  77.6473070  49.3466670  12.6083790  78.1640570  48.3427880
  12.0819010  78.6883190  47.7393020  12.9515130  78.7967960  48.9737610
   5.0070180  75.5533940  34.7877590   4.8059240  74.6901300  35.1490930
   4.8362230  75.4667300  33.8499190   5.7839410  86.1840210  49.4985260
   5.2460500  86.9086270  49.1793960   6.0373370  85.7070550  48.7082600
   7.0364660  74.1524730  51.0241190   7.6264350  73.8440580  51.7119010
   6.2184900  73.6804480  51.1801090  11.8558090  73.7690540  51.2574210
  11.1673610  73.1072080  51.1924200  12.5764110  73.3228810  51.7022670
  12.4858490  70.3642170  37.3164470  12.7660780  69.5210070  37.6723890
  11.7124220  70.5965280  37.8303220   3.8052980  72.6534560  34.7755470
   4.1078880  72.6601990  33.8674620   4.5447570  72.3032420  35.2723130
   8.6401620  87.4191420  49.7571910   8.5660320  88.3226560  50.0644280
   7.7380460  87.1003320  49.7293980   7.0237910  71.5969180  35.7611670
   6.6759910  70.9193170  35.1814120   7.2250680  71.1358690  36.5755060
   9.1886950  86.5849930  37.3798270  10.0837740  86.9234900  37.4017030
   9.2204580  85.8629340  36.7522550   2.8283110  81.9576980  35.6085270
   3.2657980  82.5006650  36.2642850   3.3130840  81.1323930  35.6181610
   4.6390830  83.0775020  40.7207500   4.3386370  82.9539990  41.6211410
   4.5328320  82.2183610  40.3123230  16.1681300  85.1153600  50.0864470
  15.5683290  85.1746160  49.3428390  16.2975200  84.1758580  50.2161320
  17.4082750  82.8571420  35.4234180  16.5775710  82.9248070  35.8941410
  17.5854580  83.7475540  35.1201040  16.8639210  79.6018900  37.9268380
  17.6258120  80.1715550  38.0328070  16.8793580  79.0346100  38.6976690
  17.8699180  80.4569000  42.7710310  18.2408010  79.6736320  42.3646280
  18.5101110  81.1458100  42.5927610  14.8532940  81.8405580  48.1840630
  14.0392780  82.2702740  48.4466420  15.2607140  82.4523990  47.5709680
  16.9158380  79.8953270  35.0840900  17.1907220  80.8032150  34.9560120
  16.7269120  79.8315800  36.0202890  13.3133990  72.9198120  36.3794530
  13.7318870  72.7329100  35.5391190  13.0070050  72.0677170  36.6897460
  16.8123720  77.8322260  40.0770330  16.4367320  77.0650190  39.6451620
  16.0826840  78.2144960  40.5645260  16.2023340  76.9793780  49.7109850
  15.9709430  76.7506530  48.8107800  16.4627890  77.8993330  49.6654740
  14.6411410  72.2050210  52.4889550  15.5181590  72.2133610  52.8723550
  14.6532250  71.4681050  51.8781900  16.0874680  76.0579750  43.3777570
  16.6112160  75.5642400  42.7467740  16.6734100  76.1930110  44.1225140
  16.2664400  76.1419620  46.8997120  15.3167110  76.1083160  47.0142110
  16.4477410  77.0519730  46.6646890   1.7683000  70.4460630  35.0498400
   2.4911130  70.9869570  35.3679620   2.0407520  70.1724050  34.1739940
  15.5774650  75.3153100  39.3169980  16.0733770  75.0823970  40.1018860
  15.3790720  74.4764940  38.9007620  17.0061810  73.9514050  41.8507660
  16.8961090  73.7970090  42.7889930  17.7669400  73.4234990  41.6083070
  15.3527530  69.8908180  48.3090660  15.9899750  70.5042320  48.6749850
  15.5002420  69.9268840  47.3639890  17.8952080  71.7821970  35.0913800
  18.8201390  71.6503150  34.8832090  17.8727870  71.8614790  36.0450250
  17.9690570  72.5532630  37.7170510  17.1742070  72.4877750  38.2463420
  18.1733850  73.4883270  37.7055860  14.9108990  86.5924180  41.7108900
  15.5068060  86.2708750  41.0343320  15.1687140  86.1196000  42.5022170
   2.8171560  83.0242090  51.8599530   2.7741190  82.6535000  52.7413990
   2.9482570  83.9619660  52.0001350   6.5177590  84.5801680  47.4609250
   6.2768950  84.8476240  46.5739770   7.4580230  84.7507410  47.5160110
   8.7232010  71.0434370  51.2165760   8.6620900  71.6356200  51.9661170
   9.6632390  70.9360330  51.0716020  11.3606570  70.7004430  50.8558050
  11.9746980  71.0183720  50.1939130  11.9056130  70.2153020  51.4753910
  17.7781750  86.5996060  48.2619890  17.2840030  86.9964930  47.5447020
  17.1695040  85.9745270  48.6557170   1.8827830  69.3798690  50.9697110
   2.4310820  69.1986740  50.2063220   1.9483140  68.5892800  51.5053420
   2.6559590  85.9704340  48.9797310   2.0619910  85.8389040  49.7187350
   2.6483430  85.1342480  48.5139410  12.1014610  69.2636570  47.1827340
  11.2274450  69.5971680  46.9800270  11.9925360  68.7909750  48.0079210
  13.0086590  71.4707440  48.5669060  12.6799950  70.6559200  48.1870790
  13.9568890  71.4277250  48.4434750  15.4621200  87.2419480  45.5406630
  15.0024170  87.9935290  45.1664650  14.8333660  86.5225950  45.4821430
   5.8916920  85.5507720  44.7154760   6.4081940  84.9395080  44.1903020
   6.5414300  86.0536500  45.2065770   8.6312420  86.4416210  45.5423740
   8.9190230  86.1870510  44.6656750   9.1435640  85.8893570  46.1329310
   9.8489430  70.1806410  46.1220250   9.0661220  70.6551910  46.4017010
   9.5552360  69.2761240  46.0133430  14.4010500  70.8829510  44.1669340
  14.8418590  70.8274610  43.3190940  14.1318090  71.7987520  44.2379520
  16.2649070  70.5144750  42.1778160  16.2037470  69.5705970  42.0309180
  17.0441100  70.6224840  42.7231620   7.7343650  72.5993160  41.6336280
   6.9218160  72.2250050  41.2932160   8.2385290  71.8438240  41.9357470
  12.2368630  69.2635610  42.8719350  12.8398000  69.8355820  43.3467870
  11.4961620  69.8275050  42.6493250  15.3803230  69.6657170  38.1459630
  15.5753860  70.5640620  38.4127060  14.5933100  69.4344250  38.6392580
   3.5654990  71.0117940  37.1835940   4.0947750  70.2247740  37.0543890
   4.1983310  71.6909130  37.4171470   5.7592830  70.7493080  40.2381330
   5.1295570  70.0480390  40.4051460   5.2197970  71.5097210  40.0214490
   8.6984780  87.3632310  52.9091940   9.6252090  87.1276580  52.9527900
   8.6835210  88.1904310  52.4277970  16.9329840  86.9057880  39.9066190
  17.1082030  86.2195620  39.2627110  16.2351410  87.4304930  39.5142860
   5.8848390  70.0277060  52.6733820   5.6032660  70.5310660  51.9094640
   6.2668090  69.2298810  52.3075950   4.7757490  87.2952720  37.4601500
   5.5076310  87.0112000  36.9125390   5.0351160  87.0566000  38.3500880
   3.9372280  83.4117450  37.4647830   3.3081160  83.8802550  38.0133660
   4.0520110  82.5666670  37.8994020  12.4863850  69.4430640  53.2514290
  12.3729300  69.7625250  54.1465810  13.3033590  69.8443150  52.9551570
  15.2662340  86.5902170  52.7332980  16.0587660  86.0951400  52.5258940
  15.5595490  87.2692310  53.3408590  11.3922000  77.4623110  23.6149030
  11.3116050  76.5477720  23.3440740  10.9786420  77.9590180  22.9088740
   9.5240040  79.2402130  25.4958300   8.7482140  78.7602570  25.7856870
  10.1752970  78.5607780  25.3214460   3.5405870  79.5521940  26.3734060
   2.7090750  79.2970650  26.7730570   4.1486850  79.6232710  27.1091980
  13.5447470  83.6462320  24.2757430  13.0829000  82.8749560  24.6044600
  14.3573020  83.6728390  24.7809880   3.5207130  83.5862030  26.5692080
   3.8235170  82.6959770  26.3902300   4.2650720  84.1432250  26.3414330
   9.7710780  85.9320330  23.8961420   9.1522220  86.3877830  23.3255860
  10.6262560  86.0871790  23.4951120   8.9649030  81.9159320  25.5028460
   8.8957310  80.9749260  25.3417590   9.7268890  82.0060730  26.0751030
   9.9954200  74.7229700  25.7297390  10.3719020  73.8501580  25.6171060
   9.8973710  75.0588400  24.8387830   4.1259210  73.0955330  21.1914830
   4.2325960  73.9959060  21.4983590   3.2151570  73.0473300  20.9009480
  13.7778320  72.2180140  22.6625730  14.5987940  71.7276710  22.7051210
  13.8112400  72.8077800  23.4157570   5.9666940  76.0641700  25.5240010
   6.4745160  76.5622670  26.1645030   6.4980180  75.2876900  25.3479370
  18.0677870  74.2346890  29.2269360  17.3630040  74.6228600  28.7084470
  18.3335790  74.9297180  29.8290290   4.2503040  70.7040260  29.7903430
   4.2521480  71.2212650  28.9849330   3.4207350  70.2270440  29.7673360
  10.6374130  80.8159570  21.2893330  10.0191400  81.2809020  20.7256050
  11.1497380  81.5087050  21.7062840   5.5005890  80.3435440  27.9676930
   5.1675270  80.9704360  28.6098000   5.6772570  80.8697320  27.1878600
  14.0139800  74.1580520  25.4353270  13.3095370  74.4465410  26.0156380
  14.3751960  74.9680630  25.0752830   3.9318370  72.4150220  27.7973880
   4.2735180  73.2592270  27.5027750   2.9934180  72.5633960  27.9139220
   4.7124990  82.3116240  29.7826110   5.3298990  82.9867320  29.5010560
   3.8518110  82.7204220  29.6913610  15.6302580  83.7755650  27.6980750
  14.9466100  84.4454760  27.6897420  16.1696870  83.9736300  26.9325610
  17.0826720  73.6035310  25.8262480  16.1351630  73.6374290  25.9577910
  17.4076710  74.4174260  26.2111840   7.6146260  69.9032490  24.1218470
   7.9221240  69.3479380  23.4053970   6.6846960  70.0376950  23.9391460
  13.1661320  85.6199780  26.4125930  13.1788480  85.2162070  25.5448190
  12.6136540  86.3947070  26.3087360  14.4606740  82.3416000  21.5016100
  14.3503070  81.3990330  21.6265520  14.4574990  82.7031640  22.3878860
  12.5646760  80.5229620  27.7408540  12.9815550  80.3089730  26.9062000
  13.2886580  80.7802410  28.3117160  10.0027020  77.9681320  20.8578590
   9.0756300  77.9018700  21.0867060  10.1551840  78.9061450  20.7433830
   9.9896100  74.2398320  17.8545750   9.0499770  74.4012280  17.9398210
  10.3079360  74.9584000  17.3081740  16.5108860  78.9216840  27.8324780
  15.6827490  78.9909930  27.3574910  17.1059340  79.5071150  27.3640610
  14.0324310  79.5301620  21.3613840  13.4136730  79.1921170  20.7140140
  14.0148760  78.8861380  22.0693030  13.4750870  75.7086160  28.7779650
  13.0622050  76.5339870  29.0319640  12.7426820  75.1231200  28.5856010
   5.6083660  78.4946060  23.6398320   5.2040660  77.7823310  23.1444220
   5.6946780  78.1499300  24.5286360   6.0765360  82.1813620  25.8037530
   5.7793650  81.5759090  25.1245310   7.0265180  82.2190930  25.6926890
   4.3212280  75.2689270  27.4197360   4.8726870  75.3784610  26.6450610
   4.8355790  75.6426870  28.1352590  14.1650970  85.7545490  29.4660630
  13.6881530  86.5617680  29.2733240  13.4812760  85.1023820  29.6186840
   5.1683790  81.9195310  32.4545330   4.2712320  82.1435280  32.7018730
   5.1936660  82.0430250  31.5056730  12.2089010  78.7688430  18.3686590
  12.6482290  77.9310860  18.2224410  12.9217430  79.4017830  18.4550730
   3.9955010  78.7908630  31.0302700   3.8562780  79.6631430  31.3990100
   3.1136370  78.4481440  30.8850640  10.3184390  83.7084500  22.3367830
  10.7580300  84.4508830  21.9223220  10.2571280  83.9511070  23.2606790
   5.7935360  84.7330330  33.2387850   5.7650790  85.1373280  32.3716280
   5.6300330  83.8040690  33.0759450  15.7906150  70.0231240  16.6827630
  15.4778810  70.1158070  17.5826700  16.5518620  70.6012270  16.6325060
   2.3088290  77.3891040  21.1404970   2.1885890  78.1153130  20.5286240
   1.9989180  76.6193950  20.6632880  17.7450180  85.5157430  34.5352020
  18.2209900  85.9940320  35.2141100  18.3657340  85.4474920  33.8097520
  17.1483430  82.7070280  31.6952030  17.2746490  82.4682160  30.7769210
  17.1904810  81.8754820  32.1674110  11.0100170  86.4098280  30.2646840
  11.5244840  86.3206290  31.0669270  10.1669250  86.7557980  30.5574750
  12.9854570  86.6953620  19.6930840  12.8255710  86.4056560  20.5912670
  12.8201280  85.9193750  19.1576070   5.4642950  86.4752150  21.4702460
   5.2885430  85.5587690  21.2570260   4.6098690  86.8339440  21.7100260
  12.6880700  84.2041180  18.2528840  11.9945860  84.2018470  17.5931120
  13.4303560  83.7800500  17.8223010  12.2530630  85.8303890  22.3277330
  12.7087580  85.0493270  22.6415950  12.5923150  86.5410710  22.8718510
  17.0007440  74.7602740  32.6601770  16.3851710  75.2682410  32.1317230
  16.6803860  73.8601070  32.6027710   4.7751950  70.7326110  24.5228640
   4.3320100  71.5135650  24.1913160   5.3336940  71.0556000  25.2299580
   9.0621760  73.5994630  30.1263960   8.6001130  73.8077650  30.9383900
   8.6599870  72.7853980  29.8234630  14.0626270  74.8203580  31.2560620
  13.2119860  74.5209330  31.5769690  13.9028060  75.0645590  30.3444440
  11.1575980  76.3205330  33.3559410  11.4829390  75.4869080  33.0161640
  11.9456310  76.8433850  33.5037740   7.8910770  70.3536810  19.4034470
   7.2664950  70.3496680  20.1287780   7.8040890  69.4867770  19.0070440
   6.8127850  71.2773440  26.3818240   7.1100180  72.1836270  26.3010260
   7.3613410  70.7892220  25.7677810   4.5666170  75.8559680  22.2509890
   4.3407090  75.6396850  23.1556510   3.7858700  76.2888140  21.9055860
  11.7963930  75.8623050  20.8500540  11.1972820  76.5858850  20.6664160
  12.3443540  75.7999830  20.0676990   7.0065380  76.7545260  32.9170160
   6.9108980  75.8139990  32.7670560   7.8497360  76.9760330  32.5218230
  10.4028800  74.4986590  22.8803820  10.7958370  74.8158790  22.0672510
  10.7645650  73.6198470  22.9948340   8.7120970  73.2493900  34.1400680
   8.0219290  73.0566100  34.7746770   9.4553270  73.5328540  34.6724980
  10.9883940  77.0892340  26.9754600  10.2565060  77.5979150  27.3244700
  10.5908280  76.2722320  26.6743380   7.4261330  73.7646540  25.3807090
   7.4297390  73.3236490  24.5311630   8.3212450  74.0863870  25.4878910
   3.2763710  73.6473030  24.3401300   2.9363760  74.1248260  25.0968350
   2.5141030  73.1938150  23.9802400   7.4881480  74.7658620  18.3713850
   7.6094300  74.7245100  19.3199670   7.1029990  75.6282770  18.2160580
  11.4509850  72.5426020  26.3877540  11.4682590  72.9934670  27.2319390
  11.2025430  71.6431660  26.6010980   6.5002980  77.0759760  17.7697150
   5.9319880  76.6278010  17.1433060   7.2091980  77.4352540  17.2362300
  14.8780600  69.9558200  32.2263920  15.2026370  69.2247860  32.7521900
  14.9137110  69.6371840  31.3244910   7.7269300  77.8248320  27.1272500
   8.0939430  77.3506890  27.8733840   7.5374360  78.6989890  27.4680840
   5.5168670  76.8656960  29.4456710   5.2125740  77.7448940  29.6707070
   6.4715130  76.9256750  29.4814150   4.0450460  81.0717950  20.0423560
   3.2712720  80.5315570  19.8822280   4.7745090  80.5524560  19.7041320
  14.8038440  80.0683310  25.8349950  15.5237560  80.5638600  25.4446060
  14.6020260  79.3901200  25.1903820  10.2648380  71.4621270  19.9779340
   9.4512990  70.9634440  19.9024650  10.0710330  72.3019520  19.5615690
  10.1857240  80.1392370  31.7218950  10.1194550  79.2188040  31.4676540
   9.5562380  80.2367810  32.4363590  12.9796770  75.8340920  18.2741500
  13.8676390  76.1458150  18.0992840  12.9501860  74.9613170  17.8822080
   4.0887860  80.7398330  23.6802370   4.6066530  79.9366590  23.6259260
   3.6371880  80.6777470  24.5219200   8.9757360  82.0064610  18.9529670
   9.3173060  82.7506840  18.4572990   8.1470070  82.3195730  19.3154500
   4.7745520  78.1643940  33.4767620   4.4745660  78.3101120  32.5795440
   5.5456760  77.6049230  33.3841010  10.1173970  82.9612940  31.4722750
  10.1318510  82.0293900  31.2541660   9.4099070  83.0472700  32.1112520
  15.2511040  77.1452760  17.7421360  15.1674760  77.5766980  16.8917800
  15.9705230  77.6051110  18.1748180  16.3285180  79.6020280  30.8191330
  15.6033370  80.1949060  30.6220720  16.8560640  79.5943820  30.0204700
  16.2798290  83.9995020  20.4703490  15.6374450  83.3450640  20.7447210
  15.8928950  84.4050110  19.6944160  11.8584770  81.3280450  24.3175180
  12.2108590  80.7308580  23.6576550  10.9747100  81.0024680  24.4883430
   7.9448050  82.0878140  21.7245590   8.6319180  82.6347350  22.1053180
   7.1580470  82.6318870  21.7595200   7.2475260  79.0924170  21.3370950
   7.7038040  79.9029420  21.5631140   6.8963470  78.7747310  22.1689440
   9.5507870  84.6030510  28.5663250  10.1950090  84.8089890  29.2436670
   9.9137310  83.8418910  28.1134100   3.1487040  69.4361820  21.8093470
   3.0201670  69.4279720  22.7578390   2.3249060  69.7744910  21.4584480
  10.8239950  82.6062860  27.2840700  11.4662180  81.9056020  27.3972870
  11.3489300  83.3861300  27.1037590  14.6695670  82.8911480  17.0079840
  14.4433250  82.1741920  17.6004480  14.2791870  82.6423920  16.1701590
  12.5977570  83.4057760  30.4876760  12.9333810  83.9924450  31.1654680
  11.6777910  83.2750470  30.7174550  14.2511920  80.8083420  18.6694000
  13.9633620  81.2696110  19.4571880  15.0464090  80.3481190  18.9378220
   8.4266150  83.4549090  33.6564820   8.1063020  82.7358330  34.2010510
   7.7524510  84.1304160  33.7300880   6.4680320  84.3009540  18.5997970
   6.4590420  85.0339230  17.9842480   5.5478680  84.0541120  18.6924930
  11.6419750  73.6875250  29.0201620  12.0100570  72.8670460  29.3481190
  10.7817950  73.7477140  29.4357270  15.0081780  72.6432190  19.8289180
  14.3794940  72.7477860  19.1147410  14.5133700  72.8628970  20.6183060
   9.4539920  84.3637780  17.2623160   9.5551900  84.1601770  16.3325140
   8.5541660  84.1096060  17.4670940   6.9765810  74.9218140  21.2447060
   6.2681960  75.3904480  21.6860670   7.2610290  74.2640150  21.8792250
   8.6021740  76.3414840  29.2439590   9.1006990  76.8160660  29.9091440
   8.7444690  75.4178360  29.4509620  11.0081240  71.6468800  22.6842850
  10.8849020  71.6654930  21.7352360  11.9565800  71.6947740  22.8041250
   8.0958030  86.8824100  21.9570830   8.3499530  86.8445490  21.0350200
   7.1470510  86.7557430  21.9499080   5.1800830  73.2303220  18.6197770
   6.0291360  73.6673370  18.5537960   4.8132100  73.5423480  19.4469830
  15.8088600  72.5582800  30.0867980  15.3062200  73.2988200  30.4261790
  16.6245260  72.9466800  29.7704770  14.1010610  77.8015980  23.5329340
  13.1600750  77.8166210  23.7077030  14.4154680  77.0151940  23.9789640
   4.0792250  79.4835580  17.0933300   4.8455520  79.3716940  17.6558730
   4.1566940  78.7873550  16.4410070   2.7739010  76.9160650  17.7766190
   2.8542600  75.9688160  17.8883590   3.6658760  77.2467530  17.8826850
  16.1036190  84.9724830  25.2083600  16.2283610  85.7956000  25.6807410
  16.9701750  84.7615560  24.8607750   3.5753720  87.0656040  24.8800730
   4.3116200  86.5171500  25.1509300   3.9594640  87.9312050  24.7406720
   2.5812000  86.2502110  34.0686310   3.3824730  86.5714160  34.4821710
   2.0663820  85.8897690  34.7906220   6.6856030  86.2386350  16.7026300
   7.4784640  86.5275180  16.2508090   6.1660380  85.8078520  16.0238780
  11.4176630  82.3581980  34.0161720  10.8114790  82.3813580  33.2757470
  11.1130740  81.6265020  34.5528970  12.8477000  86.0862270  32.6271130
  13.7998750  86.0020290  32.5771370  12.7005220  86.7503980  33.3004920
  15.7386200  85.4656480  18.1263040  15.4527710  85.0521620  17.3117220
  15.5405750  86.3944190  18.0063560   7.2033430  81.4589760  16.5668650
   7.0984070  80.8442110  17.2930030   7.0357650  80.9355650  15.7831660
   7.3547750  80.1446560  32.5457880   6.5893420  80.7131560  32.4612550
   7.5363710  79.8522770  31.6526110  10.4436160  80.5209790  17.1710640
   9.8946260  80.9679090  17.8153380  11.0655420  80.0159040  17.6948310
  14.4971100  81.8751890  33.1032900  15.2380570  82.2127650  32.6000360
  13.7343780  82.0443950  32.5502670   2.3332890  76.8805160  33.9072430
   2.3738230  76.5819030  34.8157660   3.1878390  77.2812770  33.7479950
   6.1111280  79.4800710  19.0675940   6.5327700  79.3140580  19.9107330
   6.2362120  78.6700940  18.5731080   4.2738700  75.4597260  31.8746920
   3.7435160  74.9688210  31.2470260   4.9426770  75.8881460  31.3404850
   8.6238920  78.5038320  16.3153040   9.1444580  77.7887340  15.9494190
   9.2707320  79.1424190  16.6153550  13.1716760  79.9266720  31.6388110
  13.5857780  80.0811800  32.4878530  12.2367760  80.0521940  31.8013890
  13.6438930  77.2662880  33.6427260  14.2259700  76.5115200  33.5547740
  13.8200700  77.7970320  32.8658740   4.7611000  72.4259630  31.9544210
   4.6667870  71.8080380  31.2295080   4.1808390  73.1525920  31.7274120
   7.5272440  70.9832870  28.9871600   7.0789740  71.0057130  28.1417150
   6.8937640  70.5851890  29.5841900   7.9331990  79.8787200  29.6084040
   8.3520100  80.7219930  29.4360280   7.0140620  80.0159240  29.3790820
  10.2695890  77.6103380  30.9921880  10.3892100  77.0144520  31.7316720
  11.1289890  77.6473070  30.5723180  12.6083790  78.1640570  29.5684390
  12.0819010  78.6883190  28.9649530  12.9515130  78.7967960  30.1994120
   5.0070180  75.5533940  16.0134100   4.8059240  74.6901300  16.3747440
   4.8362230  75.4667300  15.0755700   5.7839410  86.1840210  30.7241770
   5.2460500  86.9086270  30.4050470   6.0373370  85.7070550  29.9339110
   7.0364660  74.1524730  32.2497700   7.6264350  73.8440580  32.9375520
   6.2184900  73.6804480  32.4057600  11.8558090  73.7690540  32.4830720
  11.1673610  73.1072080  32.4180710  12.5764110  73.3228810  32.9279180
  12.4858490  70.3642170  18.5420980  12.7660780  69.5210070  18.8980400
  11.7124220  70.5965280  19.0559730   3.8052980  72.6534560  16.0011980
   4.1078880  72.6601990  15.0931130   4.5447570  72.3032420  16.4979640
   8.6401620  87.4191420  30.9828420   8.5660320  88.3226560  31.2900790
   7.7380460  87.1003320  30.9550490   7.0237910  71.5969180  16.9868180
   6.6759910  70.9193170  16.4070630   7.2250680  71.1358690  17.8011570
   9.1886950  86.5849930  18.6054780  10.0837740  86.9234900  18.6273540
   9.2204580  85.8629340  17.9779060   2.8283110  81.9576980  16.8341780
   3.2657980  82.5006650  17.4899360   3.3130840  81.1323930  16.8438120
   4.6390830  83.0775020  21.9464010   4.3386370  82.9539990  22.8467920
   4.5328320  82.2183610  21.5379740  16.1681300  85.1153600  31.3120980
  15.5683290  85.1746160  30.5684900  16.2975200  84.1758580  31.4417830
  17.4082750  82.8571420  16.6490690  16.5775710  82.9248070  17.1197920
  17.5854580  83.7475540  16.3457550  16.8639210  79.6018900  19.1524890
  17.6258120  80.1715550  19.2584580  16.8793580  79.0346100  19.9233200
  17.8699180  80.4569000  23.9966820  18.2408010  79.6736320  23.5902790
  18.5101110  81.1458100  23.8184120  14.8532940  81.8405580  29.4097140
  14.0392780  82.2702740  29.6722930  15.2607140  82.4523990  28.7966190
  16.9158380  79.8953270  16.3097410  17.1907220  80.8032150  16.1816630
  16.7269120  79.8315800  17.2459400  13.3133990  72.9198120  17.6051040
  13.7318870  72.7329100  16.7647700  13.0070050  72.0677170  17.9153970
  16.8123720  77.8322260  21.3026840  16.4367320  77.0650190  20.8708130
  16.0826840  78.2144960  21.7901770  16.2023340  76.9793780  30.9366360
  15.9709430  76.7506530  30.0364310  16.4627890  77.8993330  30.8911250
  14.6411410  72.2050210  33.7146060  15.5181590  72.2133610  34.0980060
  14.6532250  71.4681050  33.1038410  16.0874680  76.0579750  24.6034080
  16.6112160  75.5642400  23.9724250  16.6734100  76.1930110  25.3481650
  16.2664400  76.1419620  28.1253630  15.3167110  76.1083160  28.2398620
  16.4477410  77.0519730  27.8903400   1.7683000  70.4460630  16.2754910
   2.4911130  70.9869570  16.5936130   2.0407520  70.1724050  15.3996450
  15.5774650  75.3153100  20.5426490  16.0733770  75.0823970  21.3275370
  15.3790720  74.4764940  20.1264130  17.0061810  73.9514050  23.0764170
  16.8961090  73.7970090  24.0146440  17.7669400  73.4234990  22.8339580
  15.3527530  69.8908180  29.5347170  15.9899750  70.5042320  29.9006360
  15.5002420  69.9268840  28.5896400  17.8952080  71.7821970  16.3170310
  18.8201390  71.6503150  16.1088600  17.8727870  71.8614790  17.2706760
  17.9690570  72.5532630  18.9427020  17.1742070  72.4877750  19.4719930
  18.1733850  73.4883270  18.9312370  14.9108990  86.5924180  22.9365410
  15.5068060  86.2708750  22.2599830  15.1687140  86.1196000  23.7278680
   2.8171560  83.0242090  33.0856040   2.7741190  82.6535000  33.9670500
   2.9482570  83.9619660  33.2257860   6.5177590  84.5801680  28.6865760
   6.2768950  84.8476240  27.7996280   7.4580230  84.7507410  28.7416620
   8.7232010  71.0434370  32.4422270   8.6620900  71.6356200  33.1917680
   9.6632390  70.9360330  32.2972530  11.3606570  70.7004430  32.0814560
  11.9746980  71.0183720  31.4195640  11.9056130  70.2153020  32.7010420
  17.7781750  86.5996060  29.4876400  17.2840030  86.9964930  28.7703530
  17.1695040  85.9745270  29.8813680   1.8827830  69.3798690  32.1953620
   2.4310820  69.1986740  31.4319730   1.9483140  68.5892800  32.7309930
   2.6559590  85.9704340  30.2053820   2.0619910  85.8389040  30.9443860
   2.6483430  85.1342480  29.7395920  12.1014610  69.2636570  28.4083850
  11.2274450  69.5971680  28.2056780  11.9925360  68.7909750  29.2335720
  13.0086590  71.4707440  29.7925570  12.6799950  70.6559200  29.4127300
  13.9568890  71.4277250  29.6691260  15.4621200  87.2419480  26.7663140
  15.0024170  87.9935290  26.3921160  14.8333660  86.5225950  26.7077940
   5.8916920  85.5507720  25.9411270   6.4081940  84.9395080  25.4159530
   6.5414300  86.0536500  26.4322280   8.6312420  86.4416210  26.7680250
   8.9190230  86.1870510  25.8913260   9.1435640  85.8893570  27.3585820
   9.8489430  70.1806410  27.3476760   9.0661220  70.6551910  27.6273520
   9.5552360  69.2761240  27.2389940  14.4010500  70.8829510  25.3925850
  14.8418590  70.8274610  24.5447450  14.1318090  71.7987520  25.4636030
  16.2649070  70.5144750  23.4034670  16.2037470  69.5705970  23.2565690
  17.0441100  70.6224840  23.9488130   7.7343650  72.5993160  22.8592790
   6.9218160  72.2250050  22.5188670   8.2385290  71.8438240  23.1613980
  12.2368630  69.2635610  24.0975860  12.8398000  69.8355820  24.5724380
  11.4961620  69.8275050  23.8749760  15.3803230  69.6657170  19.3716140
  15.5753860  70.5640620  19.6383570  14.5933100  69.4344250  19.8649090
   3.5654990  71.0117940  18.4092450   4.0947750  70.2247740  18.2800400
   4.1983310  71.6909130  18.6427980   5.7592830  70.7493080  21.4637840
   5.1295570  70.0480390  21.6307970   5.2197970  71.5097210  21.2471000
   8.6984780  87.3632310  34.1348450   9.6252090  87.1276580  34.1784410
   8.6835210  88.1904310  33.6534480  16.9329840  86.9057880  21.1322700
  17.1082030  86.2195620  20.4883620  16.2351410  87.4304930  20.7399370
   5.8848390  70.0277060  33.8990330   5.6032660  70.5310660  33.1351150
   6.2668090  69.2298810  33.5332460   4.7757490  87.2952720  18.6858010
   5.5076310  87.0112000  18.1381900   5.0351160  87.0566000  19.5757390
   3.9372280  83.4117450  18.6904340   3.3081160  83.8802550  19.2390170
   4.0520110  82.5666670  19.1250530  12.4863850  69.4430640  34.4770800
  12.3729300  69.7625250  35.3722320  13.3033590  69.8443150  34.1808080
  15.2662340  86.5902170  33.9589490  16.0587660  86.0951400  33.7515450
  15.5595490  87.2692310  34.5665100  11.3922000  77.4623110   4.8405540
  11.3116050  76.5477720   4.5697250  10.9786420  77.9590180   4.1345250
   9.5240040  79.2402130   6.7214810   8.7482140  78.7602570   7.0113380
  10.1752970  78.5607780   6.5470970   3.5405870  79.5521940   7.5990570
   2.7090750  79.2970650   7.9987080   4.1486850  79.6232710   8.3348490
  13.5447470  83.6462320   5.5013940  13.0829000  82.8749560   5.8301110
  14.3573020  83.6728390   6.0066390   3.5207130  83.5862030   7.7948590
   3.8235170  82.6959770   7.6158810   4.2650720  84.1432250   7.5670840
   9.7710780  85.9320330   5.1217930   9.1522220  86.3877830   4.5512370
  10.6262560  86.0871790   4.7207630   8.9649030  81.9159320   6.7284970
   8.8957310  80.9749260   6.5674100   9.7268890  82.0060730   7.3007540
   9.9954200  74.7229700   6.9553900  10.3719020  73.8501580   6.8427570
   9.8973710  75.0588400   6.0644340   4.1259210  73.0955330   2.4171340
   4.2325960  73.9959060   2.7240100   3.2151570  73.0473300   2.1265990
  13.7778320  72.2180140   3.8882240  14.5987940  71.7276710   3.9307720
  13.8112400  72.8077800   4.6414080   5.9666940  76.0641700   6.7496520
   6.4745160  76.5622670   7.3901540   6.4980180  75.2876900   6.5735880
  18.0677870  74.2346890  10.4525870  17.3630040  74.6228600   9.9340980
  18.3335790  74.9297180  11.0546800   4.2503040  70.7040260  11.0159940
   4.2521480  71.2212650  10.2105840   3.4207350  70.2270440  10.9929870
  10.6374130  80.8159570   2.5149840  10.0191400  81.2809020   1.9512560
  11.1497380  81.5087050   2.9319350   5.5005890  80.3435440   9.1933440
   5.1675270  80.9704360   9.8354510   5.6772570  80.8697320   8.4135110
  14.0139800  74.1580520   6.6609780  13.3095370  74.4465410   7.2412890
  14.3751960  74.9680630   6.3009340   3.9318370  72.4150220   9.0230390
   4.2735180  73.2592270   8.7284260   2.9934180  72.5633960   9.1395730
   4.7124990  82.3116240  11.0082620   5.3298990  82.9867320  10.7267070
   3.8518110  82.7204220  10.9170120  15.6302580  83.7755650   8.9237260
  14.9466100  84.4454760   8.9153930  16.1696870  83.9736300   8.1582120
  17.0826720  73.6035310   7.0518990  16.1351630  73.6374290   7.1834420
  17.4076710  74.4174260   7.4368350   7.6146260  69.9032490   5.3474980
   7.9221240  69.3479380   4.6310480   6.6846960  70.0376950   5.1647970
  13.1661320  85.6199780   7.6382440  13.1788480  85.2162070   6.7704700
  12.6136540  86.3947070   7.5343870  14.4606740  82.3416000   2.7272610
  14.3503070  81.3990330   2.8522030  14.4574990  82.7031640   3.6135370
  12.5646760  80.5229620   8.9665050  12.9815550  80.3089730   8.1318510
  13.2886580  80.7802410   9.5373670  10.0027020  77.9681320   2.0835100
   9.0756300  77.9018700   2.3123570  10.1551840  78.9061450   1.9690340
  16.5108860  78.9216840   9.0581290  15.6827490  78.9909930   8.5831420
  17.1059340  79.5071150   8.5897120  14.0324310  79.5301620   2.5870350
  13.4136730  79.1921170   1.9396650  14.0148760  78.8861380   3.2949540
  13.4750870  75.7086160  10.0036160  13.0622050  76.5339870  10.2576150
  12.7426820  75.1231200   9.8112520   5.6083660  78.4946060   4.8654830
   5.2040660  77.7823310   4.3700730   5.6946780  78.1499300   5.7542870
   6.0765360  82.1813620   7.0294040   5.7793650  81.5759090   6.3501820
   7.0265180  82.2190930   6.9183400   4.3212280  75.2689270   8.6453870
   4.8726870  75.3784610   7.8707120   4.8355790  75.6426870   9.3609100
  14.1650970  85.7545490  10.6917140  13.6881530  86.5617680  10.4989750
  13.4812760  85.1023820  10.8443350   5.1683790  81.9195310  13.6801840
   4.2712320  82.1435280  13.9275240   5.1936660  82.0430250  12.7313240
   3.9955010  78.7908630  12.2559210   3.8562780  79.6631430  12.6246610
   3.1136370  78.4481440  12.1107150  10.3184390  83.7084500   3.5624340
  10.7580300  84.4508830   3.1479730  10.2571280  83.9511070   4.4863300
   5.7935360  84.7330330  14.4644360   5.7650790  85.1373280  13.5972790
   5.6300330  83.8040690  14.3015960   2.3088290  77.3891040   2.3661480
   2.1885890  78.1153130   1.7542750   1.9989180  76.6193950   1.8889390
  17.7450180  85.5157430  15.7608530  18.2209900  85.9940320  16.4397610
  18.3657340  85.4474920  15.0354030  17.1483430  82.7070280  12.9208540
  17.2746490  82.4682160  12.0025720  17.1904810  81.8754820  13.3930620
  11.0100170  86.4098280  11.4903350  11.5244840  86.3206290  12.2925780
  10.1669250  86.7557980  11.7831260   5.4642950  86.4752150   2.6958970
   5.2885430  85.5587690   2.4826770   4.6098690  86.8339440   2.9356770
  12.2530630  85.8303890   3.5533840  12.7087580  85.0493270   3.8672460
  12.5923150  86.5410710   4.0975020  17.0007440  74.7602740  13.8858280
  16.3851710  75.2682410  13.3573740  16.6803860  73.8601070  13.8284220
   4.7751950  70.7326110   5.7485150   4.3320100  71.5135650   5.4169670
   5.3336940  71.0556000   6.4556090   9.0621760  73.5994630  11.3520470
   8.6001130  73.8077650  12.1640410   8.6599870  72.7853980  11.0491140
  14.0626270  74.8203580  12.4817130  13.2119860  74.5209330  12.8026200
  13.9028060  75.0645590  11.5700950  11.1575980  76.3205330  14.5815920
  11.4829390  75.4869080  14.2418150  11.9456310  76.8433850  14.7294250
   6.8127850  71.2773440   7.6074750   7.1100180  72.1836270   7.5266770
   7.3613410  70.7892220   6.9934320   4.5666170  75.8559680   3.4766400
   4.3407090  75.6396850   4.3813020   3.7858700  76.2888140   3.1312370
   7.0065380  76.7545260  14.1426670   6.9108980  75.8139990  13.9927070
   7.8497360  76.9760330  13.7474740  10.4028800  74.4986590   4.1060330
  10.7958370  74.8158790   3.2929020  10.7645650  73.6198470   4.2204850
   8.7120970  73.2493900  15.3657190   8.0219290  73.0566100  16.0003280
   9.4553270  73.5328540  15.8981490  10.9883940  77.0892340   8.2011110
  10.2565060  77.5979150   8.5501210  10.5908280  76.2722320   7.8999890
   7.4261330  73.7646540   6.6063600   7.4297390  73.3236490   5.7568140
   8.3212450  74.0863870   6.7135420   3.2763710  73.6473030   5.5657810
   2.9363760  74.1248260   6.3224860   2.5141030  73.1938150   5.2058910
  11.4509850  72.5426020   7.6134050  11.4682590  72.9934670   8.4575900
  11.2025430  71.6431660   7.8267490  14.8780600  69.9558200  13.4520430
  15.2026370  69.2247860  13.9778410  14.9137110  69.6371840  12.5501420
   7.7269300  77.8248320   8.3529010   8.0939430  77.3506890   9.0990350
   7.5374360  78.6989890   8.6937350   5.5168670  76.8656960  10.6713220
   5.2125740  77.7448940  10.8963580   6.4715130  76.9256750  10.7070660
  14.8038440  80.0683310   7.0606460  15.5237560  80.5638600   6.6702570
  14.6020260  79.3901200   6.4160330  10.1857240  80.1392370  12.9475460
  10.1194550  79.2188040  12.6933050   9.5562380  80.2367810  13.6620100
   4.0887860  80.7398330   4.9058880   4.6066530  79.9366590   4.8515770
   3.6371880  80.6777470   5.7475710   4.7745520  78.1643940  14.7024130
   4.4745660  78.3101120  13.8051950   5.5456760  77.6049230  14.6097520
  10.1173970  82.9612940  12.6979260  10.1318510  82.0293900  12.4798170
   9.4099070  83.0472700  13.3369030  16.3285180  79.6020280  12.0447840
  15.6033370  80.1949060  11.8477230  16.8560640  79.5943820  11.2461210
  11.8584770  81.3280450   5.5431690  12.2108590  80.7308580   4.8833060
  10.9747100  81.0024680   5.7139940   7.9448050  82.0878140   2.9502100
   8.6319180  82.6347350   3.3309690   7.1580470  82.6318870   2.9851710
   7.2475260  79.0924170   2.5627460   7.7038040  79.9029420   2.7887650
   6.8963470  78.7747310   3.3945950   9.5507870  84.6030510   9.7919760
  10.1950090  84.8089890  10.4693180   9.9137310  83.8418910   9.3390610
   3.1487040  69.4361820   3.0349980   3.0201670  69.4279720   3.9834900
   2.3249060  69.7744910   2.6840990  10.8239950  82.6062860   8.5097210
  11.4662180  81.9056020   8.6229380  11.3489300  83.3861300   8.3294100
  12.5977570  83.4057760  11.7133270  12.9333810  83.9924450  12.3911190
  11.6777910  83.2750470  11.9431060   8.4266150  83.4549090  14.8821330
   8.1063020  82.7358330  15.4267020   7.7524510  84.1304160  14.9557390
  11.6419750  73.6875250  10.2458130  12.0100570  72.8670460  10.5737700
  10.7817950  73.7477140  10.6613780   6.9765810  74.9218140   2.4703570
   6.2681960  75.3904480   2.9117180   7.2610290  74.2640150   3.1048760
   8.6021740  76.3414840  10.4696100   9.1006990  76.8160660  11.1347950
   8.7444690  75.4178360  10.6766130  11.0081240  71.6468800   3.9099360
  10.8849020  71.6654930   2.9608870  11.9565800  71.6947740   4.0297760
   8.0958030  86.8824100   3.1827340   8.3499530  86.8445490   2.2606710
   7.1470510  86.7557430   3.1755590  15.8088600  72.5582800  11.3124490
  15.3062200  73.2988200  11.6518300  16.6245260  72.9466800  10.9961280
  14.1010610  77.8015980   4.7585850  13.1600750  77.8166210   4.9333540
  14.4154680  77.0151940   5.2046150  16.1036190  84.9724830   6.4340110
  16.2283610  85.7956000   6.9063920  16.9701750  84.7615560   6.0864260
   3.5753720  87.0656040   6.1057240   4.3116200  86.5171500   6.3765810
   3.9594640  87.9312050   5.9663230   2.5812000  86.2502110  15.2942820
   3.3824730  86.5714160  15.7078220   2.0663820  85.8897690  16.0162730
  11.4176630  82.3581980  15.2418230  10.8114790  82.3813580  14.5013980
  11.1130740  81.6265020  15.7785480  12.8477000  86.0862270  13.8527640
  13.7998750  86.0020290  13.8027880  12.7005220  86.7503980  14.5261430
   7.3547750  80.1446560  13.7714390   6.5893420  80.7131560  13.6869060
   7.5363710  79.8522770  12.8782620  14.4971100  81.8751890  14.3289410
  15.2380570  82.2127650  13.8256870  13.7343780  82.0443950  13.7759180
   2.3332890  76.8805160  15.1328940   2.3738230  76.5819030  16.0414170
   3.1878390  77.2812770  14.9736460   4.2738700  75.4597260  13.1003430
   3.7435160  74.9688210  12.4726770   4.9426770  75.8881460  12.5661360
  13.1716760  79.9266720  12.8644620  13.5857780  80.0811800  13.7135040
  12.2367760  80.0521940  13.0270400  13.6438930  77.2662880  14.8683770
  14.2259700  76.5115200  14.7804250  13.8200700  77.7970320  14.0915250
   4.7611000  72.4259630  13.1800720   4.6667870  71.8080380  12.4551590
   4.1808390  73.1525920  12.9530630   7.5272440  70.9832870  10.2128110
   7.0789740  71.0057130   9.3673660   6.8937640  70.5851890  10.8098410
   7.9331990  79.8787200  10.8340550   8.3520100  80.7219930  10.6616790
   7.0140620  80.0159240  10.6047330  10.2695890  77.6103380  12.2178390
  10.3892100  77.0144520  12.9573230  11.1289890  77.6473070  11.7979690
  12.6083790  78.1640570  10.7940900  12.0819010  78.6883190  10.1906040
  12.9515130  78.7967960  11.4250630   5.7839410  86.1840210  11.9498280
   5.2460500  86.9086270  11.6306980   6.0373370  85.7070550  11.1595620
   7.0364660  74.1524730  13.4754210   7.6264350  73.8440580  14.1632030
   6.2184900  73.6804480  13.6314110  11.8558090  73.7690540  13.7087230
  11.1673610  73.1072080  13.6437220  12.5764110  73.3228810  14.1535690
   8.6401620  87.4191420  12.2084930   8.5660320  88.3226560  12.5157300
   7.7380460  87.1003320  12.1807000   4.6390830  83.0775020   3.1720520
   4.3386370  82.9539990   4.0724430   4.5328320  82.2183610   2.7636250
  16.1681300  85.1153600  12.5377490  15.5683290  85.1746160  11.7941410
  16.2975200  84.1758580  12.6674340  17.8699180  80.4569000   5.2223330
  18.2408010  79.6736320   4.8159300  18.5101110  81.1458100   5.0440630
  14.8532940  81.8405580  10.6353650  14.0392780  82.2702740  10.8979440
  15.2607140  82.4523990  10.0222700  16.8123720  77.8322260   2.5283350
  16.4367320  77.0650190   2.0964640  16.0826840  78.2144960   3.0158280
  16.2023340  76.9793780  12.1622870  15.9709430  76.7506530  11.2620820
  16.4627890  77.8993330  12.1167760  14.6411410  72.2050210  14.9402570
  15.5181590  72.2133610  15.3236570  14.6532250  71.4681050  14.3294920
  16.0874680  76.0579750   5.8290590  16.6112160  75.5642400   5.1980760
  16.6734100  76.1930110   6.5738160  16.2664400  76.1419620   9.3510140
  15.3167110  76.1083160   9.4655130  16.4477410  77.0519730   9.1159910
  15.5774650  75.3153100   1.7683000  16.0733770  75.0823970   2.5531880
  15.3790720  74.4764940   1.3520640  17.0061810  73.9514050   4.3020680
  16.8961090  73.7970090   5.2402950  17.7669400  73.4234990   4.0596090
  15.3527530  69.8908180  10.7603680  15.9899750  70.5042320  11.1262870
  15.5002420  69.9268840   9.8152910  14.9108990  86.5924180   4.1621920
  15.5068060  86.2708750   3.4856340  15.1687140  86.1196000   4.9535190
   2.8171560  83.0242090  14.3112550   2.7741190  82.6535000  15.1927010
   2.9482570  83.9619660  14.4514370   6.5177590  84.5801680   9.9122270
   6.2768950  84.8476240   9.0252790   7.4580230  84.7507410   9.9673130
   8.7232010  71.0434370  13.6678780   8.6620900  71.6356200  14.4174190
   9.6632390  70.9360330  13.5229040  11.3606570  70.7004430  13.3071070
  11.9746980  71.0183720  12.6452150  11.9056130  70.2153020  13.9266930
  17.7781750  86.5996060  10.7132910  17.2840030  86.9964930   9.9960040
  17.1695040  85.9745270  11.1070190   1.8827830  69.3798690  13.4210130
   2.4310820  69.1986740  12.6576240   1.9483140  68.5892800  13.9566440
   2.6559590  85.9704340  11.4310330   2.0619910  85.8389040  12.1700370
   2.6483430  85.1342480  10.9652430  12.1014610  69.2636570   9.6340360
  11.2274450  69.5971680   9.4313290  11.9925360  68.7909750  10.4592230
  13.0086590  71.4707440  11.0182080  12.6799950  70.6559200  10.6383810
  13.9568890  71.4277250  10.8947770  15.4621200  87.2419480   7.9919650
  15.0024170  87.9935290   7.6177670  14.8333660  86.5225950   7.9334450
   5.8916920  85.5507720   7.1667780   6.4081940  84.9395080   6.6416040
   6.5414300  86.0536500   7.6578790   8.6312420  86.4416210   7.9936760
   8.9190230  86.1870510   7.1169770   9.1435640  85.8893570   8.5842330
   9.8489430  70.1806410   8.5733270   9.0661220  70.6551910   8.8530030
   9.5552360  69.2761240   8.4646450  14.4010500  70.8829510   6.6182360
  14.8418590  70.8274610   5.7703960  14.1318090  71.7987520   6.6892540
  16.2649070  70.5144750   4.6291180  16.2037470  69.5705970   4.4822200
  17.0441100  70.6224840   5.1744640   7.7343650  72.5993160   4.0849300
   6.9218160  72.2250050   3.7445180   8.2385290  71.8438240   4.3870490
  12.2368630  69.2635610   5.3232370  12.8398000  69.8355820   5.7980890
  11.4961620  69.8275050   5.1006270   5.7592830  70.7493080   2.6894350
   5.1295570  70.0480390   2.8564480   5.2197970  71.5097210   2.4727510
   8.6984780  87.3632310  15.3604960   9.6252090  87.1276580  15.4040920
   8.6835210  88.1904310  14.8790990  16.9329840  86.9057880   2.3579210
  17.1082030  86.2195620   1.7140130  16.2351410  87.4304930   1.9655880
   5.8848390  70.0277060  15.1246840   5.6032660  70.5310660  14.3607660
   6.2668090  69.2298810  14.7588970  12.4863850  69.4430640  15.7027310
  12.3729300  69.7625250  16.5978830  13.3033590  69.8443150  15.4064590
  15.2662340  86.5902170  15.1846000  16.0587660  86.0951400  14.9771960
  15.5595490  87.2692310  15.7921610  11.3922000  58.6879620  61.1636010
  11.3116050  57.7734230  60.8927720  10.9786420  59.1846690  60.4575720
   9.5240040  60.4658640  63.0445280   8.7482140  59.9859080  63.3343850
  10.1752970  59.7864290  62.8701440   3.5405870  60.7778450  63.9221040
   2.7090750  60.5227160  64.3217550   4.1486850  60.8489220  64.6578960
  13.5447470  64.8718830  61.8244410  13.0829000  64.1006070  62.1531580
  14.3573020  64.8984900  62.3296860   3.5207130  64.8118540  64.1179060
   3.8235170  63.9216280  63.9389280   4.2650720  65.3688760  63.8901310
   9.7710780  67.1576840  61.4448400   9.1522220  67.6134340  60.8742840
  10.6262560  67.3128300  61.0438100   8.9649030  63.1415830  63.0515440
   8.8957310  62.2005770  62.8904570   9.7268890  63.2317240  63.6238010
   9.9954200  55.9486210  63.2784370  10.3719020  55.0758090  63.1658040
   9.8973710  56.2844910  62.3874810   4.1259210  54.3211840  58.7401810
   4.2325960  55.2215570  59.0470570   3.2151570  54.2729810  58.4496460
  13.7778320  53.4436650  60.2112710  14.5987940  52.9533220  60.2538190
  13.8112400  54.0334310  60.9644550   5.9666940  57.2898210  63.0726990
   6.4745160  57.7879180  63.7132010   6.4980180  56.5133410  62.8966350
  18.0677870  55.4603400  66.7756340  17.3630040  55.8485110  66.2571450
  18.3335790  56.1553690  67.3777270   4.2503040  51.9296770  67.3390410
   4.2521480  52.4469160  66.5336310   3.4207350  51.4526950  67.3160340
  10.6374130  62.0416080  58.8380310  10.0191400  62.5065530  58.2743030
  11.1497380  62.7343560  59.2549820   5.5005890  61.5691950  65.5163910
   5.1675270  62.1960870  66.1584980   5.6772570  62.0953830  64.7365580
  14.0139800  55.3837030  62.9840250  13.3095370  55.6721920  63.5643360
  14.3751960  56.1937140  62.6239810   3.9318370  53.6406730  65.3460860
   4.2735180  54.4848780  65.0514730   2.9934180  53.7890470  65.4626200
   4.7124990  63.5372750  67.3313090   5.3298990  64.2123830  67.0497540
   3.8518110  63.9460730  67.2400590  15.6302580  65.0012160  65.2467730
  14.9466100  65.6711270  65.2384400  16.1696870  65.1992810  64.4812590
  17.0826720  54.8291820  63.3749460  16.1351630  54.8630800  63.5064890
  17.4076710  55.6430770  63.7598820   7.6146260  51.1289000  61.6705450
   7.9221240  50.5735890  60.9540950   6.6846960  51.2633460  61.4878440
  13.1661320  66.8456290  63.9612910  13.1788480  66.4418580  63.0935170
  12.6136540  67.6203580  63.8574340  14.4606740  63.5672510  59.0503080
  14.3503070  62.6246840  59.1752500  14.4574990  63.9288150  59.9365840
  12.5646760  61.7486130  65.2895520  12.9815550  61.5346240  64.4548980
  13.2886580  62.0058920  65.8604140  10.0027020  59.1937830  58.4065570
   9.0756300  59.1275210  58.6354040  10.1551840  60.1317960  58.2920810
   9.9896100  55.4654830  55.4032730   9.0499770  55.6268790  55.4885190
  10.3079360  56.1840510  54.8568720  16.5108860  60.1473350  65.3811760
  15.6827490  60.2166440  64.9061890  17.1059340  60.7327660  64.9127590
  14.0324310  60.7558130  58.9100820  13.4136730  60.4177680  58.2627120
  14.0148760  60.1117890  59.6180010  13.4750870  56.9342670  66.3266630
  13.0622050  57.7596380  66.5806620  12.7426820  56.3487710  66.1342990
   5.6083660  59.7202570  61.1885300   5.2040660  59.0079820  60.6931200
   5.6946780  59.3755810  62.0773340   6.0765360  63.4070130  63.3524510
   5.7793650  62.8015600  62.6732290   7.0265180  63.4447440  63.2413870
   4.3212280  56.4945780  64.9684340   4.8726870  56.6041120  64.1937590
   4.8355790  56.8683380  65.6839570  14.1650970  66.9802000  67.0147610
  13.6881530  67.7874190  66.8220220  13.4812760  66.3280330  67.1673820
  12.2089010  59.9944940  55.9173570  12.6482290  59.1567370  55.7711390
  12.9217430  60.6274340  56.0037710  10.3184390  64.9341010  59.8854810
  10.7580300  65.6765340  59.4710200  10.2571280  65.1767580  60.8093770
  15.7906150  51.2487750  54.2314610  15.4778810  51.3414580  55.1313680
  16.5518620  51.8268780  54.1812040   2.3088290  58.6147550  58.6891950
   2.1885890  59.3409640  58.0773220   1.9989180  57.8450460  58.2119860
  12.9854570  67.9210130  57.2417820  12.8255710  67.6313070  58.1399650
  12.8201280  67.1450260  56.7063050   5.4642950  67.7008660  59.0189440
   5.2885430  66.7844200  58.8057240   4.6098690  68.0595950  59.2587240
  12.6880700  65.4297690  55.8015820  11.9945860  65.4274980  55.1418100
  13.4303560  65.0057010  55.3709990  12.2530630  67.0560400  59.8764310
  12.7087580  66.2749780  60.1902930  12.5923150  67.7667220  60.4205490
   4.7751950  51.9582620  62.0715620   4.3320100  52.7392160  61.7400140
   5.3336940  52.2812510  62.7786560   7.8910770  51.5793320  56.9521450
   7.2664950  51.5753190  57.6774760   7.8040890  50.7124280  56.5557420
   6.8127850  52.5029950  63.9305220   7.1100180  53.4092780  63.8497240
   7.3613410  52.0148730  63.3164790   4.5666170  57.0816190  59.7996870
   4.3407090  56.8653360  60.7043490   3.7858700  57.5144650  59.4542840
  11.7963930  57.0879560  58.3987520  11.1972820  57.8115360  58.2151140
  12.3443540  57.0256340  57.6163970  10.4028800  55.7243100  60.4290800
  10.7958370  56.0415300  59.6159490  10.7645650  54.8454980  60.5435320
  10.9883940  58.3148850  64.5241580  10.2565060  58.8235660  64.8731680
  10.5908280  57.4978830  64.2230360   7.4261330  54.9903050  62.9294070
   7.4297390  54.5493000  62.0798610   8.3212450  55.3120380  63.0365890
   3.2763710  54.8729540  61.8888280   2.9363760  55.3504770  62.6455330
   2.5141030  54.4194660  61.5289380   7.4881480  55.9915130  55.9200830
   7.6094300  55.9501610  56.8686650   7.1029990  56.8539280  55.7647560
  11.4509850  53.7682530  63.9364520  11.4682590  54.2191180  64.7806370
  11.2025430  52.8688170  64.1497960   6.5002980  58.3016270  55.3184130
   5.9319880  57.8534520  54.6920040   7.2091980  58.6609050  54.7849280
   7.7269300  59.0504830  64.6759480   8.0939430  58.5763400  65.4220820
   7.5374360  59.9246400  65.0167820   5.5168670  58.0913470  66.9943690
   5.2125740  58.9705450  67.2194050   6.4715130  58.1513260  67.0301130
   4.0450460  62.2974460  57.5910540   3.2712720  61.7572080  57.4309260
   4.7745090  61.7781070  57.2528300  14.8038440  61.2939820  63.3836930
  15.5237560  61.7895110  62.9933040  14.6020260  60.6157710  62.7390800
  10.2648380  52.6877780  57.5266320   9.4512990  52.1890950  57.4511630
  10.0710330  53.5276030  57.1102670  12.9796770  57.0597430  55.8228480
  13.8676390  57.3714660  55.6479820  12.9501860  56.1869680  55.4309060
   4.0887860  61.9654840  61.2289350   4.6066530  61.1623100  61.1746240
   3.6371880  61.9033980  62.0706180   8.9757360  63.2321120  56.5016650
   9.3173060  63.9763350  56.0059970   8.1470070  63.5452240  56.8641480
  15.2511040  58.3709270  55.2908340  15.1674760  58.8023490  54.4404780
  15.9705230  58.8307620  55.7235160  16.2798290  65.2251530  58.0190470
  15.6374450  64.5707150  58.2934190  15.8928950  65.6306620  57.2431140
  11.8584770  62.5536960  61.8662160  12.2108590  61.9565090  61.2063530
  10.9747100  62.2281190  62.0370410   7.9448050  63.3134650  59.2732570
   8.6319180  63.8603860  59.6540160   7.1580470  63.8575380  59.3082180
   7.2475260  60.3180680  58.8857930   7.7038040  61.1285930  59.1118120
   6.8963470  60.0003820  59.7176420   9.5507870  65.8287020  66.1150230
  10.1950090  66.0346400  66.7923650   9.9137310  65.0675420  65.6621080
   3.1487040  50.6618330  59.3580450   3.0201670  50.6536230  60.3065370
   2.3249060  51.0001420  59.0071460  10.8239950  63.8319370  64.8327680
  11.4662180  63.1312530  64.9459850  11.3489300  64.6117810  64.6524570
  14.6695670  64.1167990  54.5566820  14.4433250  63.3998430  55.1491460
  14.2791870  63.8680430  53.7188570  14.2511920  62.0339930  56.2180980
  13.9633620  62.4952620  57.0058860  15.0464090  61.5737700  56.4865200
   6.4680320  65.5266050  56.1484950   6.4590420  66.2595740  55.5329460
   5.5478680  65.2797630  56.2411910  11.6419750  54.9131760  66.5688600
  12.0100570  54.0926970  66.8968170  10.7817950  54.9733650  66.9844250
  15.0081780  53.8688700  57.3776160  14.3794940  53.9734370  56.6634390
  14.5133700  54.0885480  58.1670040   9.4539920  65.5894290  54.8110140
   9.5551900  65.3858280  53.8812120   8.5541660  65.3352570  55.0157920
   6.9765810  56.1474650  58.7934040   6.2681960  56.6160990  59.2347650
   7.2610290  55.4896660  59.4279230   8.6021740  57.5671350  66.7926570
   9.1006990  58.0417170  67.4578420   8.7444690  56.6434870  66.9996600
  11.0081240  52.8725310  60.2329830  10.8849020  52.8911440  59.2839340
  11.9565800  52.9204250  60.3528230   8.0958030  68.1080610  59.5057810
   8.3499530  68.0702000  58.5837180   7.1470510  67.9813940  59.4986060
   5.1800830  54.4559730  56.1684750   6.0291360  54.8929880  56.1024940
   4.8132100  54.7679990  56.9956810  14.1010610  59.0272490  61.0816320
  13.1600750  59.0422720  61.2564010  14.4154680  58.2408450  61.5276620
   4.0792250  60.7092090  54.6420280   4.8455520  60.5973450  55.2045710
   4.1566940  60.0130060  53.9897050   2.7739010  58.1417160  55.3253170
   2.8542600  57.1944670  55.4370570   3.6658760  58.4724040  55.4313830
  16.1036190  66.1981340  62.7570580  16.2283610  67.0212510  63.2294390
  16.9701750  65.9872070  62.4094730   3.5753720  68.2912550  62.4287710
   4.3116200  67.7428010  62.6996280   3.9594640  69.1568560  62.2893700
   6.6856030  67.4642860  54.2513280   7.4784640  67.7531690  53.7995070
   6.1660380  67.0335030  53.5725760  15.7386200  66.6912990  55.6750020
  15.4527710  66.2778130  54.8604200  15.5405750  67.6200700  55.5550540
   7.2033430  62.6846270  54.1155630   7.0984070  62.0698620  54.8417010
   7.0357650  62.1612160  53.3318640  10.4436160  61.7466300  54.7197620
   9.8946260  62.1935600  55.3640360  11.0655420  61.2415550  55.2435290
   6.1111280  60.7057220  56.6162920   6.5327700  60.5397090  57.4594310
   6.2362120  59.8957450  56.1218060   8.6238920  59.7294830  53.8640020
   9.1444580  59.0143850  53.4981170   9.2707320  60.3680700  54.1640530
   7.5272440  52.2089380  66.5358580   7.0789740  52.2313640  65.6904130
   6.8937640  51.8108400  67.1328880   7.9331990  61.1043710  67.1571020
   8.3520100  61.9476440  66.9847260   7.0140620  61.2415750  66.9277800
  12.6083790  59.3897080  67.1171370  12.0819010  59.9139700  66.5136510
  12.9515130  60.0224470  67.7481100   5.0070180  56.7790450  53.5621080
   4.8059240  55.9157810  53.9234420   4.8362230  56.6923810  52.6242680
  12.4858490  51.5898680  56.0907960  12.7660780  50.7466580  56.4467380
  11.7124220  51.8221790  56.6046710   3.8052980  53.8791070  53.5498960
   4.1078880  53.8858500  52.6418110   4.5447570  53.5288930  54.0466620
   7.0237910  52.8225690  54.5355160   6.6759910  52.1449680  53.9557610
   7.2250680  52.3615200  55.3498550   9.1886950  67.8106440  56.1541760
  10.0837740  68.1491410  56.1760520   9.2204580  67.0885850  55.5266040
   2.8283110  63.1833490  54.3828760   3.2657980  63.7263160  55.0386340
   3.3130840  62.3580440  54.3925100   4.6390830  64.3031530  59.4950990
   4.3386370  64.1796500  60.3954900   4.5328320  63.4440120  59.0866720
  17.4082750  64.0827930  54.1977670  16.5775710  64.1504580  54.6684900
  17.5854580  64.9732050  53.8944530  16.8639210  60.8275410  56.7011870
  17.6258120  61.3972060  56.8071560  16.8793580  60.2602610  57.4720180
  17.8699180  61.6825510  61.5453800  18.2408010  60.8992830  61.1389770
  18.5101110  62.3714610  61.3671100  14.8532940  63.0662090  66.9584120
  14.0392780  63.4959250  67.2209910  15.2607140  63.6780500  66.3453170
  16.9158380  61.1209780  53.8584390  17.1907220  62.0288660  53.7303610
  16.7269120  61.0572310  54.7946380  13.3133990  54.1454630  55.1538020
  13.7318870  53.9585610  54.3134680  13.0070050  53.2933680  55.4640950
  16.8123720  59.0578770  58.8513820  16.4367320  58.2906700  58.4195110
  16.0826840  59.4401470  59.3388750  16.0874680  57.2836260  62.1521060
  16.6112160  56.7898910  61.5211230  16.6734100  57.4186620  62.8968630
  16.2664400  57.3676130  65.6740610  15.3167110  57.3339670  65.7885600
  16.4477410  58.2776240  65.4390380   1.7683000  51.6717140  53.8241890
   2.4911130  52.2126080  54.1423110   2.0407520  51.3980560  52.9483430
  15.5774650  56.5409610  58.0913470  16.0733770  56.3080480  58.8762350
  15.3790720  55.7021450  57.6751110  17.0061810  55.1770560  60.6251150
  16.8961090  55.0226600  61.5633420  17.7669400  54.6491500  60.3826560
  15.3527530  51.1164690  67.0834150  15.9899750  51.7298830  67.4493340
  15.5002420  51.1525350  66.1383380  17.8952080  53.0078480  53.8657290
  18.8201390  52.8759660  53.6575580  17.8727870  53.0871300  54.8193740
  17.9690570  53.7789140  56.4914000  17.1742070  53.7134260  57.0206910
  18.1733850  54.7139780  56.4799350  14.9108990  67.8180690  60.4852390
  15.5068060  67.4965260  59.8086810  15.1687140  67.3452510  61.2765660
   6.5177590  65.8058190  66.2352740   6.2768950  66.0732750  65.3483260
   7.4580230  65.9763920  66.2903600  17.7781750  67.8252570  67.0363380
  17.2840030  68.2221440  66.3190510  17.1695040  67.2001780  67.4300660
  12.1014610  50.4893080  65.9570830  11.2274450  50.8228190  65.7543760
  11.9925360  50.0166260  66.7822700  13.0086590  52.6963950  67.3412550
  12.6799950  51.8815710  66.9614280  13.9568890  52.6533760  67.2178240
  15.4621200  68.4675990  64.3150120  15.0024170  69.2191800  63.9408140
  14.8333660  67.7482460  64.2564920   5.8916920  66.7764230  63.4898250
   6.4081940  66.1651590  62.9646510   6.5414300  67.2793010  63.9809260
   8.6312420  67.6672720  64.3167230   8.9190230  67.4127020  63.4400240
   9.1435640  67.1150080  64.9072800   9.8489430  51.4062920  64.8963740
   9.0661220  51.8808420  65.1760500   9.5552360  50.5017750  64.7876920
  14.4010500  52.1086020  62.9412830  14.8418590  52.0531120  62.0934430
  14.1318090  53.0244030  63.0123010  16.2649070  51.7401260  60.9521650
  16.2037470  50.7962480  60.8052670  17.0441100  51.8481350  61.4975110
   7.7343650  53.8249670  60.4079770   6.9218160  53.4506560  60.0675650
   8.2385290  53.0694750  60.7100960  12.2368630  50.4892120  61.6462840
  12.8398000  51.0612330  62.1211360  11.4961620  51.0531560  61.4236740
  15.3803230  50.8913680  56.9203120  15.5753860  51.7897130  57.1870550
  14.5933100  50.6600760  57.4136070   3.5654990  52.2374450  55.9579430
   4.0947750  51.4504250  55.8287380   4.1983310  52.9165640  56.1914960
   5.7592830  51.9749590  59.0124820   5.1295570  51.2736900  59.1794950
   5.2197970  52.7353720  58.7957980  16.9329840  68.1314390  58.6809680
  17.1082030  67.4452130  58.0370600  16.2351410  68.6561440  58.2886350
   4.7757490  68.5209230  56.2344990   5.5076310  68.2368510  55.6868880
   5.0351160  68.2822510  57.1244370   3.9372280  64.6373960  56.2391320
   3.3081160  65.1059060  56.7877150   4.0520110  63.7923180  56.6737510
  11.3922000  58.6879620  42.3892520  11.3116050  57.7734230  42.1184230
  10.9786420  59.1846690  41.6832230   9.5240040  60.4658640  44.2701790
   8.7482140  59.9859080  44.5600360  10.1752970  59.7864290  44.0957950
   3.5405870  60.7778450  45.1477550   2.7090750  60.5227160  45.5474060
   4.1486850  60.8489220  45.8835470  13.5447470  64.8718830  43.0500920
  13.0829000  64.1006070  43.3788090  14.3573020  64.8984900  43.5553370
   3.5207130  64.8118540  45.3435570   3.8235170  63.9216280  45.1645790
   4.2650720  65.3688760  45.1157820   9.7710780  67.1576840  42.6704910
   9.1522220  67.6134340  42.0999350  10.6262560  67.3128300  42.2694610
   8.9649030  63.1415830  44.2771950   8.8957310  62.2005770  44.1161080
   9.7268890  63.2317240  44.8494520   9.9954200  55.9486210  44.5040880
  10.3719020  55.0758090  44.3914550   9.8973710  56.2844910  43.6131320
   4.1259210  54.3211840  39.9658320   4.2325960  55.2215570  40.2727080
   3.2151570  54.2729810  39.6752970  13.7778320  53.4436650  41.4369220
  14.5987940  52.9533220  41.4794700  13.8112400  54.0334310  42.1901060
   5.9666940  57.2898210  44.2983500   6.4745160  57.7879180  44.9388520
   6.4980180  56.5133410  44.1222860  18.0677870  55.4603400  48.0012850
  17.3630040  55.8485110  47.4827960  18.3335790  56.1553690  48.6033780
   4.2503040  51.9296770  48.5646920   4.2521480  52.4469160  47.7592820
   3.4207350  51.4526950  48.5416850  10.6374130  62.0416080  40.0636820
  10.0191400  62.5065530  39.4999540  11.1497380  62.7343560  40.4806330
   5.5005890  61.5691950  46.7420420   5.1675270  62.1960870  47.3841490
   5.6772570  62.0953830  45.9622090  14.0139800  55.3837030  44.2096760
  13.3095370  55.6721920  44.7899870  14.3751960  56.1937140  43.8496320
   3.9318370  53.6406730  46.5717370   4.2735180  54.4848780  46.2771240
   2.9934180  53.7890470  46.6882710   4.7124990  63.5372750  48.5569600
   5.3298990  64.2123830  48.2754050   3.8518110  63.9460730  48.4657100
  15.6302580  65.0012160  46.4724240  14.9466100  65.6711270  46.4640910
  16.1696870  65.1992810  45.7069100  17.0826720  54.8291820  44.6005970
  16.1351630  54.8630800  44.7321400  17.4076710  55.6430770  44.9855330
   7.6146260  51.1289000  42.8961960   7.9221240  50.5735890  42.1797460
   6.6846960  51.2633460  42.7134950  13.1661320  66.8456290  45.1869420
  13.1788480  66.4418580  44.3191680  12.6136540  67.6203580  45.0830850
  14.4606740  63.5672510  40.2759590  14.3503070  62.6246840  40.4009010
  14.4574990  63.9288150  41.1622350  12.5646760  61.7486130  46.5152030
  12.9815550  61.5346240  45.6805490  13.2886580  62.0058920  47.0860650
  10.0027020  59.1937830  39.6322080   9.0756300  59.1275210  39.8610550
  10.1551840  60.1317960  39.5177320   9.9896100  55.4654830  36.6289240
   9.0499770  55.6268790  36.7141700  10.3079360  56.1840510  36.0825230
  16.5108860  60.1473350  46.6068270  15.6827490  60.2166440  46.1318400
  17.1059340  60.7327660  46.1384100  14.0324310  60.7558130  40.1357330
  13.4136730  60.4177680  39.4883630  14.0148760  60.1117890  40.8436520
  13.4750870  56.9342670  47.5523140  13.0622050  57.7596380  47.8063130
  12.7426820  56.3487710  47.3599500   5.6083660  59.7202570  42.4141810
   5.2040660  59.0079820  41.9187710   5.6946780  59.3755810  43.3029850
   6.0765360  63.4070130  44.5781020   5.7793650  62.8015600  43.8988800
   7.0265180  63.4447440  44.4670380   4.3212280  56.4945780  46.1940850
   4.8726870  56.6041120  45.4194100   4.8355790  56.8683380  46.9096080
  14.1650970  66.9802000  48.2404120  13.6881530  67.7874190  48.0476730
  13.4812760  66.3280330  48.3930330   5.1683790  63.1451820  51.2288820
   4.2712320  63.3691790  51.4762220   5.1936660  63.2686760  50.2800220
  12.2089010  59.9944940  37.1430080  12.6482290  59.1567370  36.9967900
  12.9217430  60.6274340  37.2294220   3.9955010  60.0165140  49.8046190
   3.8562780  60.8887940  50.1733590   3.1136370  59.6737950  49.6594130
  10.3184390  64.9341010  41.1111320  10.7580300  65.6765340  40.6966710
  10.2571280  65.1767580  42.0350280   5.7935360  65.9586840  52.0131340
   5.7650790  66.3629790  51.1459770   5.6300330  65.0297200  51.8502940
  15.7906150  51.2487750  35.4571120  15.4778810  51.3414580  36.3570190
  16.5518620  51.8268780  35.4068550   2.3088290  58.6147550  39.9148460
   2.1885890  59.3409640  39.3029730   1.9989180  57.8450460  39.4376370
  17.7450180  66.7413940  53.3095510  18.2209900  67.2196830  53.9884590
  18.3657340  66.6731430  52.5841010  17.1483430  63.9326790  50.4695520
  17.2746490  63.6938670  49.5512700  17.1904810  63.1011330  50.9417600
  11.0100170  67.6354790  49.0390330  11.5244840  67.5462800  49.8412760
  10.1669250  67.9814490  49.3318240  12.9854570  67.9210130  38.4674330
  12.8255710  67.6313070  39.3656160  12.8201280  67.1450260  37.9319560
   5.4642950  67.7008660  40.2445950   5.2885430  66.7844200  40.0313750
   4.6098690  68.0595950  40.4843750  12.6880700  65.4297690  37.0272330
  11.9945860  65.4274980  36.3674610  13.4303560  65.0057010  36.5966500
  12.2530630  67.0560400  41.1020820  12.7087580  66.2749780  41.4159440
  12.5923150  67.7667220  41.6462000  17.0007440  55.9859250  51.4345260
  16.3851710  56.4938920  50.9060720  16.6803860  55.0857580  51.3771200
   4.7751950  51.9582620  43.2972130   4.3320100  52.7392160  42.9656650
   5.3336940  52.2812510  44.0043070   9.0621760  54.8251140  48.9007450
   8.6001130  55.0334160  49.7127390   8.6599870  54.0110490  48.5978120
  14.0626270  56.0460090  50.0304110  13.2119860  55.7465840  50.3513180
  13.9028060  56.2902100  49.1187930  11.1575980  57.5461840  52.1302900
  11.4829390  56.7125590  51.7905130  11.9456310  58.0690360  52.2781230
   7.8910770  51.5793320  38.1777960   7.2664950  51.5753190  38.9031270
   7.8040890  50.7124280  37.7813930   6.8127850  52.5029950  45.1561730
   7.1100180  53.4092780  45.0753750   7.3613410  52.0148730  44.5421300
   4.5666170  57.0816190  41.0253380   4.3407090  56.8653360  41.9300000
   3.7858700  57.5144650  40.6799350  11.7963930  57.0879560  39.6244030
  11.1972820  57.8115360  39.4407650  12.3443540  57.0256340  38.8420480
   7.0065380  57.9801770  51.6913650   6.9108980  57.0396500  51.5414050
   7.8497360  58.2016840  51.2961720  10.4028800  55.7243100  41.6547310
  10.7958370  56.0415300  40.8416000  10.7645650  54.8454980  41.7691830
   8.7120970  54.4750410  52.9144170   8.0219290  54.2822610  53.5490260
   9.4553270  54.7585050  53.4468470  10.9883940  58.3148850  45.7498090
  10.2565060  58.8235660  46.0988190  10.5908280  57.4978830  45.4486870
   7.4261330  54.9903050  44.1550580   7.4297390  54.5493000  43.3055120
   8.3212450  55.3120380  44.2622400   3.2763710  54.8729540  43.1144790
   2.9363760  55.3504770  43.8711840   2.5141030  54.4194660  42.7545890
   7.4881480  55.9915130  37.1457340   7.6094300  55.9501610  38.0943160
   7.1029990  56.8539280  36.9904070  11.4509850  53.7682530  45.1621030
  11.4682590  54.2191180  46.0062880  11.2025430  52.8688170  45.3754470
   6.5002980  58.3016270  36.5440640   5.9319880  57.8534520  35.9176550
   7.2091980  58.6609050  36.0105790  14.8780600  51.1814710  51.0007410
  15.2026370  50.4504370  51.5265390  14.9137110  50.8628350  50.0988400
   7.7269300  59.0504830  45.9015990   8.0939430  58.5763400  46.6477330
   7.5374360  59.9246400  46.2424330   5.5168670  58.0913470  48.2200200
   5.2125740  58.9705450  48.4450560   6.4715130  58.1513260  48.2557640
   4.0450460  62.2974460  38.8167050   3.2712720  61.7572080  38.6565770
   4.7745090  61.7781070  38.4784810  14.8038440  61.2939820  44.6093440
  15.5237560  61.7895110  44.2189550  14.6020260  60.6157710  43.9647310
  10.2648380  52.6877780  38.7522830   9.4512990  52.1890950  38.6768140
  10.0710330  53.5276030  38.3359180  10.1857240  61.3648880  50.4962440
  10.1194550  60.4444550  50.2420030   9.5562380  61.4624320  51.2107080
  12.9796770  57.0597430  37.0484990  13.8676390  57.3714660  36.8736330
  12.9501860  56.1869680  36.6565570   4.0887860  61.9654840  42.4545860
   4.6066530  61.1623100  42.4002750   3.6371880  61.9033980  43.2962690
   8.9757360  63.2321120  37.7273160   9.3173060  63.9763350  37.2316480
   8.1470070  63.5452240  38.0897990   4.7745520  59.3900450  52.2511110
   4.4745660  59.5357630  51.3538930   5.5456760  58.8305740  52.1584500
  10.1173970  64.1869450  50.2466240  10.1318510  63.2550410  50.0285150
   9.4099070  64.2729210  50.8856010  15.2511040  58.3709270  36.5164850
  15.1674760  58.8023490  35.6661290  15.9705230  58.8307620  36.9491670
  16.3285180  60.8276790  49.5934820  15.6033370  61.4205570  49.3964210
  16.8560640  60.8200330  48.7948190  16.2798290  65.2251530  39.2446980
  15.6374450  64.5707150  39.5190700  15.8928950  65.6306620  38.4687650
  11.8584770  62.5536960  43.0918670  12.2108590  61.9565090  42.4320040
  10.9747100  62.2281190  43.2626920   7.9448050  63.3134650  40.4989080
   8.6319180  63.8603860  40.8796670   7.1580470  63.8575380  40.5338690
   7.2475260  60.3180680  40.1114440   7.7038040  61.1285930  40.3374630
   6.8963470  60.0003820  40.9432930   9.5507870  65.8287020  47.3406740
  10.1950090  66.0346400  48.0180160   9.9137310  65.0675420  46.8877590
   3.1487040  50.6618330  40.5836960   3.0201670  50.6536230  41.5321880
   2.3249060  51.0001420  40.2327970  10.8239950  63.8319370  46.0584190
  11.4662180  63.1312530  46.1716360  11.3489300  64.6117810  45.8781080
  14.6695670  64.1167990  35.7823330  14.4433250  63.3998430  36.3747970
  14.2791870  63.8680430  34.9445080  12.5977570  64.6314270  49.2620250
  12.9333810  65.2180960  49.9398170  11.6777910  64.5006980  49.4918040
  14.2511920  62.0339930  37.4437490  13.9633620  62.4952620  38.2315370
  15.0464090  61.5737700  37.7121710   8.4266150  64.6805600  52.4308310
   8.1063020  63.9614840  52.9754000   7.7524510  65.3560670  52.5044370
   6.4680320  65.5266050  37.3741460   6.4590420  66.2595740  36.7585970
   5.5478680  65.2797630  37.4668420  11.6419750  54.9131760  47.7945110
  12.0100570  54.0926970  48.1224680  10.7817950  54.9733650  48.2100760
  15.0081780  53.8688700  38.6032670  14.3794940  53.9734370  37.8890900
  14.5133700  54.0885480  39.3926550   9.4539920  65.5894290  36.0366650
   9.5551900  65.3858280  35.1068630   8.5541660  65.3352570  36.2414430
   6.9765810  56.1474650  40.0190550   6.2681960  56.6160990  40.4604160
   7.2610290  55.4896660  40.6535740   8.6021740  57.5671350  48.0183080
   9.1006990  58.0417170  48.6834930   8.7444690  56.6434870  48.2253110
  11.0081240  52.8725310  41.4586340  10.8849020  52.8911440  40.5095850
  11.9565800  52.9204250  41.5784740   8.0958030  68.1080610  40.7314320
   8.3499530  68.0702000  39.8093690   7.1470510  67.9813940  40.7242570
   5.1800830  54.4559730  37.3941260   6.0291360  54.8929880  37.3281450
   4.8132100  54.7679990  38.2213320  15.8088600  53.7839310  48.8611470
  15.3062200  54.5244710  49.2005280  16.6245260  54.1723310  48.5448260
  14.1010610  59.0272490  42.3072830  13.1600750  59.0422720  42.4820520
  14.4154680  58.2408450  42.7533130   4.0792250  60.7092090  35.8676790
   4.8455520  60.5973450  36.4302220   4.1566940  60.0130060  35.2153560
   2.7739010  58.1417160  36.5509680   2.8542600  57.1944670  36.6627080
   3.6658760  58.4724040  36.6570340  16.1036190  66.1981340  43.9827090
  16.2283610  67.0212510  44.4550900  16.9701750  65.9872070  43.6351240
   3.5753720  68.2912550  43.6544220   4.3116200  67.7428010  43.9252790
   3.9594640  69.1568560  43.5150210   2.5812000  67.4758620  52.8429800
   3.3824730  67.7970670  53.2565200   2.0663820  67.1154200  53.5649710
   6.6856030  67.4642860  35.4769790   7.4784640  67.7531690  35.0251580
   6.1660380  67.0335030  34.7982270  11.4176630  63.5838490  52.7905210
  10.8114790  63.6070090  52.0500960  11.1130740  62.8521530  53.3272460
  12.8477000  67.3118780  51.4014620  13.7998750  67.2276800  51.3514860
  12.7005220  67.9760490  52.0748410  15.7386200  66.6912990  36.9006530
  15.4527710  66.2778130  36.0860710  15.5405750  67.6200700  36.7807050
   7.2033430  62.6846270  35.3412140   7.0984070  62.0698620  36.0673520
   7.0357650  62.1612160  34.5575150   7.3547750  61.3703070  51.3201370
   6.5893420  61.9388070  51.2356040   7.5363710  61.0779280  50.4269600
  10.4436160  61.7466300  35.9454130   9.8946260  62.1935600  36.5896870
  11.0655420  61.2415550  36.4691800  14.4971100  63.1008400  51.8776390
  15.2380570  63.4384160  51.3743850  13.7343780  63.2700460  51.3246160
   2.3332890  58.1061670  52.6815920   2.3738230  57.8075540  53.5901150
   3.1878390  58.5069280  52.5223440   6.1111280  60.7057220  37.8419430
   6.5327700  60.5397090  38.6850820   6.2362120  59.8957450  37.3474570
   4.2738700  56.6853770  50.6490410   3.7435160  56.1944720  50.0213750
   4.9426770  57.1137970  50.1148340   8.6238920  59.7294830  35.0896530
   9.1444580  59.0143850  34.7237680   9.2707320  60.3680700  35.3897040
  13.1716760  61.1523230  50.4131600  13.5857780  61.3068310  51.2622020
  12.2367760  61.2778450  50.5757380  13.6438930  58.4919390  52.4170750
  14.2259700  57.7371710  52.3291230  13.8200700  59.0226830  51.6402230
   4.7611000  53.6516140  50.7287700   4.6667870  53.0336890  50.0038570
   4.1808390  54.3782430  50.5017610   7.5272440  52.2089380  47.7615090
   7.0789740  52.2313640  46.9160640   6.8937640  51.8108400  48.3585390
   7.9331990  61.1043710  48.3827530   8.3520100  61.9476440  48.2103770
   7.0140620  61.2415750  48.1534310  10.2695890  58.8359890  49.7665370
  10.3892100  58.2401030  50.5060210  11.1289890  58.8729580  49.3466670
  12.6083790  59.3897080  48.3427880  12.0819010  59.9139700  47.7393020
  12.9515130  60.0224470  48.9737610   5.0070180  56.7790450  34.7877590
   4.8059240  55.9157810  35.1490930   4.8362230  56.6923810  33.8499190
   5.7839410  67.4096720  49.4985260   5.2460500  68.1342780  49.1793960
   6.0373370  66.9327060  48.7082600   7.0364660  55.3781240  51.0241190
   7.6264350  55.0697090  51.7119010   6.2184900  54.9060990  51.1801090
  11.8558090  54.9947050  51.2574210  11.1673610  54.3328590  51.1924200
  12.5764110  54.5485320  51.7022670  12.4858490  51.5898680  37.3164470
  12.7660780  50.7466580  37.6723890  11.7124220  51.8221790  37.8303220
   3.8052980  53.8791070  34.7755470   4.1078880  53.8858500  33.8674620
   4.5447570  53.5288930  35.2723130   8.6401620  68.6447930  49.7571910
   8.5660320  69.5483070  50.0644280   7.7380460  68.3259830  49.7293980
   7.0237910  52.8225690  35.7611670   6.6759910  52.1449680  35.1814120
   7.2250680  52.3615200  36.5755060   9.1886950  67.8106440  37.3798270
  10.0837740  68.1491410  37.4017030   9.2204580  67.0885850  36.7522550
   2.8283110  63.1833490  35.6085270   3.2657980  63.7263160  36.2642850
   3.3130840  62.3580440  35.6181610   4.6390830  64.3031530  40.7207500
   4.3386370  64.1796500  41.6211410   4.5328320  63.4440120  40.3123230
  16.1681300  66.3410110  50.0864470  15.5683290  66.4002670  49.3428390
  16.2975200  65.4015090  50.2161320  17.4082750  64.0827930  35.4234180
  16.5775710  64.1504580  35.8941410  17.5854580  64.9732050  35.1201040
  16.8639210  60.8275410  37.9268380  17.6258120  61.3972060  38.0328070
  16.8793580  60.2602610  38.6976690  17.8699180  61.6825510  42.7710310
  18.2408010  60.8992830  42.3646280  18.5101110  62.3714610  42.5927610
  14.8532940  63.0662090  48.1840630  14.0392780  63.4959250  48.4466420
  15.2607140  63.6780500  47.5709680  16.9158380  61.1209780  35.0840900
  17.1907220  62.0288660  34.9560120  16.7269120  61.0572310  36.0202890
  13.3133990  54.1454630  36.3794530  13.7318870  53.9585610  35.5391190
  13.0070050  53.2933680  36.6897460  16.8123720  59.0578770  40.0770330
  16.4367320  58.2906700  39.6451620  16.0826840  59.4401470  40.5645260
  16.2023340  58.2050290  49.7109850  15.9709430  57.9763040  48.8107800
  16.4627890  59.1249840  49.6654740  14.6411410  53.4306720  52.4889550
  15.5181590  53.4390120  52.8723550  14.6532250  52.6937560  51.8781900
  16.0874680  57.2836260  43.3777570  16.6112160  56.7898910  42.7467740
  16.6734100  57.4186620  44.1225140  16.2664400  57.3676130  46.8997120
  15.3167110  57.3339670  47.0142110  16.4477410  58.2776240  46.6646890
   1.7683000  51.6717140  35.0498400   2.4911130  52.2126080  35.3679620
   2.0407520  51.3980560  34.1739940  15.5774650  56.5409610  39.3169980
  16.0733770  56.3080480  40.1018860  15.3790720  55.7021450  38.9007620
  17.0061810  55.1770560  41.8507660  16.8961090  55.0226600  42.7889930
  17.7669400  54.6491500  41.6083070  15.3527530  51.1164690  48.3090660
  15.9899750  51.7298830  48.6749850  15.5002420  51.1525350  47.3639890
  17.8952080  53.0078480  35.0913800  18.8201390  52.8759660  34.8832090
  17.8727870  53.0871300  36.0450250  17.9690570  53.7789140  37.7170510
  17.1742070  53.7134260  38.2463420  18.1733850  54.7139780  37.7055860
  14.9108990  67.8180690  41.7108900  15.5068060  67.4965260  41.0343320
  15.1687140  67.3452510  42.5022170   2.8171560  64.2498600  51.8599530
   2.7741190  63.8791510  52.7413990   2.9482570  65.1876170  52.0001350
   6.5177590  65.8058190  47.4609250   6.2768950  66.0732750  46.5739770
   7.4580230  65.9763920  47.5160110   8.7232010  52.2690880  51.2165760
   8.6620900  52.8612710  51.9661170   9.6632390  52.1616840  51.0716020
  11.3606570  51.9260940  50.8558050  11.9746980  52.2440230  50.1939130
  11.9056130  51.4409530  51.4753910  17.7781750  67.8252570  48.2619890
  17.2840030  68.2221440  47.5447020  17.1695040  67.2001780  48.6557170
   1.8827830  50.6055200  50.9697110   2.4310820  50.4243250  50.2063220
   1.9483140  49.8149310  51.5053420   2.6559590  67.1960850  48.9797310
   2.0619910  67.0645550  49.7187350   2.6483430  66.3598990  48.5139410
  12.1014610  50.4893080  47.1827340  11.2274450  50.8228190  46.9800270
  11.9925360  50.0166260  48.0079210  13.0086590  52.6963950  48.5669060
  12.6799950  51.8815710  48.1870790  13.9568890  52.6533760  48.4434750
  15.4621200  68.4675990  45.5406630  15.0024170  69.2191800  45.1664650
  14.8333660  67.7482460  45.4821430   5.8916920  66.7764230  44.7154760
   6.4081940  66.1651590  44.1903020   6.5414300  67.2793010  45.2065770
   8.6312420  67.6672720  45.5423740   8.9190230  67.4127020  44.6656750
   9.1435640  67.1150080  46.1329310   9.8489430  51.4062920  46.1220250
   9.0661220  51.8808420  46.4017010   9.5552360  50.5017750  46.0133430
  14.4010500  52.1086020  44.1669340  14.8418590  52.0531120  43.3190940
  14.1318090  53.0244030  44.2379520  16.2649070  51.7401260  42.1778160
  16.2037470  50.7962480  42.0309180  17.0441100  51.8481350  42.7231620
   7.7343650  53.8249670  41.6336280   6.9218160  53.4506560  41.2932160
   8.2385290  53.0694750  41.9357470  12.2368630  50.4892120  42.8719350
  12.8398000  51.0612330  43.3467870  11.4961620  51.0531560  42.6493250
  15.3803230  50.8913680  38.1459630  15.5753860  51.7897130  38.4127060
  14.5933100  50.6600760  38.6392580   3.5654990  52.2374450  37.1835940
   4.0947750  51.4504250  37.0543890   4.1983310  52.9165640  37.4171470
   5.7592830  51.9749590  40.2381330   5.1295570  51.2736900  40.4051460
   5.2197970  52.7353720  40.0214490   8.6984780  68.5888820  52.9091940
   9.6252090  68.3533090  52.9527900   8.6835210  69.4160820  52.4277970
  16.9329840  68.1314390  39.9066190  17.1082030  67.4452130  39.2627110
  16.2351410  68.6561440  39.5142860   5.8848390  51.2533570  52.6733820
   5.6032660  51.7567170  51.9094640   6.2668090  50.4555320  52.3075950
   4.7757490  68.5209230  37.4601500   5.5076310  68.2368510  36.9125390
   5.0351160  68.2822510  38.3500880   3.9372280  64.6373960  37.4647830
   3.3081160  65.1059060  38.0133660   4.0520110  63.7923180  37.8994020
  12.4863850  50.6687150  53.2514290  12.3729300  50.9881760  54.1465810
  13.3033590  51.0699660  52.9551570  15.2662340  67.8158680  52.7332980
  16.0587660  67.3207910  52.5258940  15.5595490  68.4948820  53.3408590
  11.3922000  58.6879620  23.6149030  11.3116050  57.7734230  23.3440740
  10.9786420  59.1846690  22.9088740   9.5240040  60.4658640  25.4958300
   8.7482140  59.9859080  25.7856870  10.1752970  59.7864290  25.3214460
   3.5405870  60.7778450  26.3734060   2.7090750  60.5227160  26.7730570
   4.1486850  60.8489220  27.1091980  13.5447470  64.8718830  24.2757430
  13.0829000  64.1006070  24.6044600  14.3573020  64.8984900  24.7809880
   3.5207130  64.8118540  26.5692080   3.8235170  63.9216280  26.3902300
   4.2650720  65.3688760  26.3414330   9.7710780  67.1576840  23.8961420
   9.1522220  67.6134340  23.3255860  10.6262560  67.3128300  23.4951120
   8.9649030  63.1415830  25.5028460   8.8957310  62.2005770  25.3417590
   9.7268890  63.2317240  26.0751030   9.9954200  55.9486210  25.7297390
  10.3719020  55.0758090  25.6171060   9.8973710  56.2844910  24.8387830
   4.1259210  54.3211840  21.1914830   4.2325960  55.2215570  21.4983590
   3.2151570  54.2729810  20.9009480  13.7778320  53.4436650  22.6625730
  14.5987940  52.9533220  22.7051210  13.8112400  54.0334310  23.4157570
   5.9666940  57.2898210  25.5240010   6.4745160  57.7879180  26.1645030
   6.4980180  56.5133410  25.3479370  18.0677870  55.4603400  29.2269360
  17.3630040  55.8485110  28.7084470  18.3335790  56.1553690  29.8290290
   4.2503040  51.9296770  29.7903430   4.2521480  52.4469160  28.9849330
   3.4207350  51.4526950  29.7673360  10.6374130  62.0416080  21.2893330
  10.0191400  62.5065530  20.7256050  11.1497380  62.7343560  21.7062840
   5.5005890  61.5691950  27.9676930   5.1675270  62.1960870  28.6098000
   5.6772570  62.0953830  27.1878600  14.0139800  55.3837030  25.4353270
  13.3095370  55.6721920  26.0156380  14.3751960  56.1937140  25.0752830
   3.9318370  53.6406730  27.7973880   4.2735180  54.4848780  27.5027750
   2.9934180  53.7890470  27.9139220   4.7124990  63.5372750  29.7826110
   5.3298990  64.2123830  29.5010560   3.8518110  63.9460730  29.6913610
  15.6302580  65.0012160  27.6980750  14.9466100  65.6711270  27.6897420
  16.1696870  65.1992810  26.9325610  17.0826720  54.8291820  25.8262480
  16.1351630  54.8630800  25.9577910  17.4076710  55.6430770  26.2111840
   7.6146260  51.1289000  24.1218470   7.9221240  50.5735890  23.4053970
   6.6846960  51.2633460  23.9391460  13.1661320  66.8456290  26.4125930
  13.1788480  66.4418580  25.5448190  12.6136540  67.6203580  26.3087360
  14.4606740  63.5672510  21.5016100  14.3503070  62.6246840  21.6265520
  14.4574990  63.9288150  22.3878860  12.5646760  61.7486130  27.7408540
  12.9815550  61.5346240  26.9062000  13.2886580  62.0058920  28.3117160
  10.0027020  59.1937830  20.8578590   9.0756300  59.1275210  21.0867060
  10.1551840  60.1317960  20.7433830   9.9896100  55.4654830  17.8545750
   9.0499770  55.6268790  17.9398210  10.3079360  56.1840510  17.3081740
  16.5108860  60.1473350  27.8324780  15.6827490  60.2166440  27.3574910
  17.1059340  60.7327660  27.3640610  14.0324310  60.7558130  21.3613840
  13.4136730  60.4177680  20.7140140  14.0148760  60.1117890  22.0693030
  13.4750870  56.9342670  28.7779650  13.0622050  57.7596380  29.0319640
  12.7426820  56.3487710  28.5856010   5.6083660  59.7202570  23.6398320
   5.2040660  59.0079820  23.1444220   5.6946780  59.3755810  24.5286360
   6.0765360  63.4070130  25.8037530   5.7793650  62.8015600  25.1245310
   7.0265180  63.4447440  25.6926890   4.3212280  56.4945780  27.4197360
   4.8726870  56.6041120  26.6450610   4.8355790  56.8683380  28.1352590
  14.1650970  66.9802000  29.4660630  13.6881530  67.7874190  29.2733240
  13.4812760  66.3280330  29.6186840   5.1683790  63.1451820  32.4545330
   4.2712320  63.3691790  32.7018730   5.1936660  63.2686760  31.5056730
  12.2089010  59.9944940  18.3686590  12.6482290  59.1567370  18.2224410
  12.9217430  60.6274340  18.4550730   3.9955010  60.0165140  31.0302700
   3.8562780  60.8887940  31.3990100   3.1136370  59.6737950  30.8850640
  10.3184390  64.9341010  22.3367830  10.7580300  65.6765340  21.9223220
  10.2571280  65.1767580  23.2606790   5.7935360  65.9586840  33.2387850
   5.7650790  66.3629790  32.3716280   5.6300330  65.0297200  33.0759450
  15.7906150  51.2487750  16.6827630  15.4778810  51.3414580  17.5826700
  16.5518620  51.8268780  16.6325060   2.3088290  58.6147550  21.1404970
   2.1885890  59.3409640  20.5286240   1.9989180  57.8450460  20.6632880
  17.7450180  66.7413940  34.5352020  18.2209900  67.2196830  35.2141100
  18.3657340  66.6731430  33.8097520  17.1483430  63.9326790  31.6952030
  17.2746490  63.6938670  30.7769210  17.1904810  63.1011330  32.1674110
  11.0100170  67.6354790  30.2646840  11.5244840  67.5462800  31.0669270
  10.1669250  67.9814490  30.5574750  12.9854570  67.9210130  19.6930840
  12.8255710  67.6313070  20.5912670  12.8201280  67.1450260  19.1576070
   5.4642950  67.7008660  21.4702460   5.2885430  66.7844200  21.2570260
   4.6098690  68.0595950  21.7100260  12.6880700  65.4297690  18.2528840
  11.9945860  65.4274980  17.5931120  13.4303560  65.0057010  17.8223010
  12.2530630  67.0560400  22.3277330  12.7087580  66.2749780  22.6415950
  12.5923150  67.7667220  22.8718510  17.0007440  55.9859250  32.6601770
  16.3851710  56.4938920  32.1317230  16.6803860  55.0857580  32.6027710
   4.7751950  51.9582620  24.5228640   4.3320100  52.7392160  24.1913160
   5.3336940  52.2812510  25.2299580   9.0621760  54.8251140  30.1263960
   8.6001130  55.0334160  30.9383900   8.6599870  54.0110490  29.8234630
  14.0626270  56.0460090  31.2560620  13.2119860  55.7465840  31.5769690
  13.9028060  56.2902100  30.3444440  11.1575980  57.5461840  33.3559410
  11.4829390  56.7125590  33.0161640  11.9456310  58.0690360  33.5037740
   7.8910770  51.5793320  19.4034470   7.2664950  51.5753190  20.1287780
   7.8040890  50.7124280  19.0070440   6.8127850  52.5029950  26.3818240
   7.1100180  53.4092780  26.3010260   7.3613410  52.0148730  25.7677810
   4.5666170  57.0816190  22.2509890   4.3407090  56.8653360  23.1556510
   3.7858700  57.5144650  21.9055860  11.7963930  57.0879560  20.8500540
  11.1972820  57.8115360  20.6664160  12.3443540  57.0256340  20.0676990
   7.0065380  57.9801770  32.9170160   6.9108980  57.0396500  32.7670560
   7.8497360  58.2016840  32.5218230  10.4028800  55.7243100  22.8803820
  10.7958370  56.0415300  22.0672510  10.7645650  54.8454980  22.9948340
   8.7120970  54.4750410  34.1400680   8.0219290  54.2822610  34.7746770
   9.4553270  54.7585050  34.6724980  10.9883940  58.3148850  26.9754600
  10.2565060  58.8235660  27.3244700  10.5908280  57.4978830  26.6743380
   7.4261330  54.9903050  25.3807090   7.4297390  54.5493000  24.5311630
   8.3212450  55.3120380  25.4878910   3.2763710  54.8729540  24.3401300
   2.9363760  55.3504770  25.0968350   2.5141030  54.4194660  23.9802400
   7.4881480  55.9915130  18.3713850   7.6094300  55.9501610  19.3199670
   7.1029990  56.8539280  18.2160580  11.4509850  53.7682530  26.3877540
  11.4682590  54.2191180  27.2319390  11.2025430  52.8688170  26.6010980
   6.5002980  58.3016270  17.7697150   5.9319880  57.8534520  17.1433060
   7.2091980  58.6609050  17.2362300  14.8780600  51.1814710  32.2263920
  15.2026370  50.4504370  32.7521900  14.9137110  50.8628350  31.3244910
   7.7269300  59.0504830  27.1272500   8.0939430  58.5763400  27.8733840
   7.5374360  59.9246400  27.4680840   5.5168670  58.0913470  29.4456710
   5.2125740  58.9705450  29.6707070   6.4715130  58.1513260  29.4814150
   4.0450460  62.2974460  20.0423560   3.2712720  61.7572080  19.8822280
   4.7745090  61.7781070  19.7041320  14.8038440  61.2939820  25.8349950
  15.5237560  61.7895110  25.4446060  14.6020260  60.6157710  25.1903820
  10.2648380  52.6877780  19.9779340   9.4512990  52.1890950  19.9024650
  10.0710330  53.5276030  19.5615690  10.1857240  61.3648880  31.7218950
  10.1194550  60.4444550  31.4676540   9.5562380  61.4624320  32.4363590
  12.9796770  57.0597430  18.2741500  13.8676390  57.3714660  18.0992840
  12.9501860  56.1869680  17.8822080   4.0887860  61.9654840  23.6802370
   4.6066530  61.1623100  23.6259260   3.6371880  61.9033980  24.5219200
   8.9757360  63.2321120  18.9529670   9.3173060  63.9763350  18.4572990
   8.1470070  63.5452240  19.3154500   4.7745520  59.3900450  33.4767620
   4.4745660  59.5357630  32.5795440   5.5456760  58.8305740  33.3841010
  10.1173970  64.1869450  31.4722750  10.1318510  63.2550410  31.2541660
   9.4099070  64.2729210  32.1112520  15.2511040  58.3709270  17.7421360
  15.1674760  58.8023490  16.8917800  15.9705230  58.8307620  18.1748180
  16.3285180  60.8276790  30.8191330  15.6033370  61.4205570  30.6220720
  16.8560640  60.8200330  30.0204700  16.2798290  65.2251530  20.4703490
  15.6374450  64.5707150  20.7447210  15.8928950  65.6306620  19.6944160
  11.8584770  62.5536960  24.3175180  12.2108590  61.9565090  23.6576550
  10.9747100  62.2281190  24.4883430   7.9448050  63.3134650  21.7245590
   8.6319180  63.8603860  22.1053180   7.1580470  63.8575380  21.7595200
   7.2475260  60.3180680  21.3370950   7.7038040  61.1285930  21.5631140
   6.8963470  60.0003820  22.1689440   9.5507870  65.8287020  28.5663250
  10.1950090  66.0346400  29.2436670   9.9137310  65.0675420  28.1134100
   3.1487040  50.6618330  21.8093470   3.0201670  50.6536230  22.7578390
   2.3249060  51.0001420  21.4584480  10.8239950  63.8319370  27.2840700
  11.4662180  63.1312530  27.3972870  11.3489300  64.6117810  27.1037590
  14.6695670  64.1167990  17.0079840  14.4433250  63.3998430  17.6004480
  14.2791870  63.8680430  16.1701590  12.5977570  64.6314270  30.4876760
  12.9333810  65.2180960  31.1654680  11.6777910  64.5006980  30.7174550
  14.2511920  62.0339930  18.6694000  13.9633620  62.4952620  19.4571880
  15.0464090  61.5737700  18.9378220   8.4266150  64.6805600  33.6564820
   8.1063020  63.9614840  34.2010510   7.7524510  65.3560670  33.7300880
   6.4680320  65.5266050  18.5997970   6.4590420  66.2595740  17.9842480
   5.5478680  65.2797630  18.6924930  11.6419750  54.9131760  29.0201620
  12.0100570  54.0926970  29.3481190  10.7817950  54.9733650  29.4357270
  15.0081780  53.8688700  19.8289180  14.3794940  53.9734370  19.1147410
  14.5133700  54.0885480  20.6183060   9.4539920  65.5894290  17.2623160
   9.5551900  65.3858280  16.3325140   8.5541660  65.3352570  17.4670940
   6.9765810  56.1474650  21.2447060   6.2681960  56.6160990  21.6860670
   7.2610290  55.4896660  21.8792250   8.6021740  57.5671350  29.2439590
   9.1006990  58.0417170  29.9091440   8.7444690  56.6434870  29.4509620
  11.0081240  52.8725310  22.6842850  10.8849020  52.8911440  21.7352360
  11.9565800  52.9204250  22.8041250   8.0958030  68.1080610  21.9570830
   8.3499530  68.0702000  21.0350200   7.1470510  67.9813940  21.9499080
   5.1800830  54.4559730  18.6197770   6.0291360  54.8929880  18.5537960
   4.8132100  54.7679990  19.4469830  15.8088600  53.7839310  30.0867980
  15.3062200  54.5244710  30.4261790  16.6245260  54.1723310  29.7704770
  14.1010610  59.0272490  23.5329340  13.1600750  59.0422720  23.7077030
  14.4154680  58.2408450  23.9789640   4.0792250  60.7092090  17.0933300
   4.8455520  60.5973450  17.6558730   4.1566940  60.0130060  16.4410070
   2.7739010  58.1417160  17.7766190   2.8542600  57.1944670  17.8883590
   3.6658760  58.4724040  17.8826850  16.1036190  66.1981340  25.2083600
  16.2283610  67.0212510  25.6807410  16.9701750  65.9872070  24.8607750
   3.5753720  68.2912550  24.8800730   4.3116200  67.7428010  25.1509300
   3.9594640  69.1568560  24.7406720   2.5812000  67.4758620  34.0686310
   3.3824730  67.7970670  34.4821710   2.0663820  67.1154200  34.7906220
   6.6856030  67.4642860  16.7026300   7.4784640  67.7531690  16.2508090
   6.1660380  67.0335030  16.0238780  11.4176630  63.5838490  34.0161720
  10.8114790  63.6070090  33.2757470  11.1130740  62.8521530  34.5528970
  12.8477000  67.3118780  32.6271130  13.7998750  67.2276800  32.5771370
  12.7005220  67.9760490  33.3004920  15.7386200  66.6912990  18.1263040
  15.4527710  66.2778130  17.3117220  15.5405750  67.6200700  18.0063560
   7.2033430  62.6846270  16.5668650   7.0984070  62.0698620  17.2930030
   7.0357650  62.1612160  15.7831660   7.3547750  61.3703070  32.5457880
   6.5893420  61.9388070  32.4612550   7.5363710  61.0779280  31.6526110
  10.4436160  61.7466300  17.1710640   9.8946260  62.1935600  17.8153380
  11.0655420  61.2415550  17.6948310  14.4971100  63.1008400  33.1032900
  15.2380570  63.4384160  32.6000360  13.7343780  63.2700460  32.5502670
   2.3332890  58.1061670  33.9072430   2.3738230  57.8075540  34.8157660
   3.1878390  58.5069280  33.7479950   6.1111280  60.7057220  19.0675940
   6.5327700  60.5397090  19.9107330   6.2362120  59.8957450  18.5731080
   4.2738700  56.6853770  31.8746920   3.7435160  56.1944720  31.2470260
   4.9426770  57.1137970  31.3404850   8.6238920  59.7294830  16.3153040
   9.1444580  59.0143850  15.9494190   9.2707320  60.3680700  16.6153550
  13.1716760  61.1523230  31.6388110  13.5857780  61.3068310  32.4878530
  12.2367760  61.2778450  31.8013890  13.6438930  58.4919390  33.6427260
  14.2259700  57.7371710  33.5547740  13.8200700  59.0226830  32.8658740
   4.7611000  53.6516140  31.9544210   4.6667870  53.0336890  31.2295080
   4.1808390  54.3782430  31.7274120   7.5272440  52.2089380  28.9871600
   7.0789740  52.2313640  28.1417150   6.8937640  51.8108400  29.5841900
   7.9331990  61.1043710  29.6084040   8.3520100  61.9476440  29.4360280
   7.0140620  61.2415750  29.3790820  10.2695890  58.8359890  30.9921880
  10.3892100  58.2401030  31.7316720  11.1289890  58.8729580  30.5723180
  12.6083790  59.3897080  29.5684390  12.0819010  59.9139700  28.9649530
  12.9515130  60.0224470  30.1994120   5.0070180  56.7790450  16.0134100
   4.8059240  55.9157810  16.3747440   4.8362230  56.6923810  15.0755700
   5.7839410  67.4096720  30.7241770   5.2460500  68.1342780  30.4050470
   6.0373370  66.9327060  29.9339110   7.0364660  55.3781240  32.2497700
   7.6264350  55.0697090  32.9375520   6.2184900  54.9060990  32.4057600
  11.8558090  54.9947050  32.4830720  11.1673610  54.3328590  32.4180710
  12.5764110  54.5485320  32.9279180  12.4858490  51.5898680  18.5420980
  12.7660780  50.7466580  18.8980400  11.7124220  51.8221790  19.0559730
   3.8052980  53.8791070  16.0011980   4.1078880  53.8858500  15.0931130
   4.5447570  53.5288930  16.4979640   8.6401620  68.6447930  30.9828420
   8.5660320  69.5483070  31.2900790   7.7380460  68.3259830  30.9550490
   7.0237910  52.8225690  16.9868180   6.6759910  52.1449680  16.4070630
   7.2250680  52.3615200  17.8011570   9.1886950  67.8106440  18.6054780
  10.0837740  68.1491410  18.6273540   9.2204580  67.0885850  17.9779060
   2.8283110  63.1833490  16.8341780   3.2657980  63.7263160  17.4899360
   3.3130840  62.3580440  16.8438120   4.6390830  64.3031530  21.9464010
   4.3386370  64.1796500  22.8467920   4.5328320  63.4440120  21.5379740
  16.1681300  66.3410110  31.3120980  15.5683290  66.4002670  30.5684900
  16.2975200  65.4015090  31.4417830  17.4082750  64.0827930  16.6490690
  16.5775710  64.1504580  17.1197920  17.5854580  64.9732050  16.3457550
  16.8639210  60.8275410  19.1524890  17.6258120  61.3972060  19.2584580
  16.8793580  60.2602610  19.9233200  17.8699180  61.6825510  23.9966820
  18.2408010  60.8992830  23.5902790  18.5101110  62.3714610  23.8184120
  14.8532940  63.0662090  29.4097140  14.0392780  63.4959250  29.6722930
  15.2607140  63.6780500  28.7966190  16.9158380  61.1209780  16.3097410
  17.1907220  62.0288660  16.1816630  16.7269120  61.0572310  17.2459400
  13.3133990  54.1454630  17.6051040  13.7318870  53.9585610  16.7647700
  13.0070050  53.2933680  17.9153970  16.8123720  59.0578770  21.3026840
  16.4367320  58.2906700  20.8708130  16.0826840  59.4401470  21.7901770
  16.2023340  58.2050290  30.9366360  15.9709430  57.9763040  30.0364310
  16.4627890  59.1249840  30.8911250  14.6411410  53.4306720  33.7146060
  15.5181590  53.4390120  34.0980060  14.6532250  52.6937560  33.1038410
  16.0874680  57.2836260  24.6034080  16.6112160  56.7898910  23.9724250
  16.6734100  57.4186620  25.3481650  16.2664400  57.3676130  28.1253630
  15.3167110  57.3339670  28.2398620  16.4477410  58.2776240  27.8903400
   1.7683000  51.6717140  16.2754910   2.4911130  52.2126080  16.5936130
   2.0407520  51.3980560  15.3996450  15.5774650  56.5409610  20.5426490
  16.0733770  56.3080480  21.3275370  15.3790720  55.7021450  20.1264130
  17.0061810  55.1770560  23.0764170  16.8961090  55.0226600  24.0146440
  17.7669400  54.6491500  22.8339580  15.3527530  51.1164690  29.5347170
  15.9899750  51.7298830  29.9006360  15.5002420  51.1525350  28.5896400
  17.8952080  53.0078480  16.3170310  18.8201390  52.8759660  16.1088600
  17.8727870  53.0871300  17.2706760  17.9690570  53.7789140  18.9427020
  17.1742070  53.7134260  19.4719930  18.1733850  54.7139780  18.9312370
  14.9108990  67.8180690  22.9365410  15.5068060  67.4965260  22.2599830
  15.1687140  67.3452510  23.7278680   2.8171560  64.2498600  33.0856040
   2.7741190  63.8791510  33.9670500   2.9482570  65.1876170  33.2257860
   6.5177590  65.8058190  28.6865760   6.2768950  66.0732750  27.7996280
   7.4580230  65.9763920  28.7416620   8.7232010  52.2690880  32.4422270
   8.6620900  52.8612710  33.1917680   9.6632390  52.1616840  32.2972530
  11.3606570  51.9260940  32.0814560  11.9746980  52.2440230  31.4195640
  11.9056130  51.4409530  32.7010420  17.7781750  67.8252570  29.4876400
  17.2840030  68.2221440  28.7703530  17.1695040  67.2001780  29.8813680
   1.8827830  50.6055200  32.1953620   2.4310820  50.4243250  31.4319730
   1.9483140  49.8149310  32.7309930   2.6559590  67.1960850  30.2053820
   2.0619910  67.0645550  30.9443860   2.6483430  66.3598990  29.7395920
  12.1014610  50.4893080  28.4083850  11.2274450  50.8228190  28.2056780
  11.9925360  50.0166260  29.2335720  13.0086590  52.6963950  29.7925570
  12.6799950  51.8815710  29.4127300  13.9568890  52.6533760  29.6691260
  15.4621200  68.4675990  26.7663140  15.0024170  69.2191800  26.3921160
  14.8333660  67.7482460  26.7077940   5.8916920  66.7764230  25.9411270
   6.4081940  66.1651590  25.4159530   6.5414300  67.2793010  26.4322280
   8.6312420  67.6672720  26.7680250   8.9190230  67.4127020  25.8913260
   9.1435640  67.1150080  27.3585820   9.8489430  51.4062920  27.3476760
   9.0661220  51.8808420  27.6273520   9.5552360  50.5017750  27.2389940
  14.4010500  52.1086020  25.3925850  14.8418590  52.0531120  24.5447450
  14.1318090  53.0244030  25.4636030  16.2649070  51.7401260  23.4034670
  16.2037470  50.7962480  23.2565690  17.0441100  51.8481350  23.9488130
   7.7343650  53.8249670  22.8592790   6.9218160  53.4506560  22.5188670
   8.2385290  53.0694750  23.1613980  12.2368630  50.4892120  24.0975860
  12.8398000  51.0612330  24.5724380  11.4961620  51.0531560  23.8749760
  15.3803230  50.8913680  19.3716140  15.5753860  51.7897130  19.6383570
  14.5933100  50.6600760  19.8649090   3.5654990  52.2374450  18.4092450
   4.0947750  51.4504250  18.2800400   4.1983310  52.9165640  18.6427980
   5.7592830  51.9749590  21.4637840   5.1295570  51.2736900  21.6307970
   5.2197970  52.7353720  21.2471000   8.6984780  68.5888820  34.1348450
   9.6252090  68.3533090  34.1784410   8.6835210  69.4160820  33.6534480
  16.9329840  68.1314390  21.1322700  17.1082030  67.4452130  20.4883620
  16.2351410  68.6561440  20.7399370   5.8848390  51.2533570  33.8990330
   5.6032660  51.7567170  33.1351150   6.2668090  50.4555320  33.5332460
   4.7757490  68.5209230  18.6858010   5.5076310  68.2368510  18.1381900
   5.0351160  68.2822510  19.5757390   3.9372280  64.6373960  18.6904340
   3.3081160  65.1059060  19.2390170   4.0520110  63.7923180  19.1250530
  12.4863850  50.6687150  34.4770800  12.3729300  50.9881760  35.3722320
  13.3033590  51.0699660  34.1808080  15.2662340  67.8158680  33.9589490
  16.0587660  67.3207910  33.7515450  15.5595490  68.4948820  34.5665100
  11.3922000  58.6879620   4.8405540  11.3116050  57.7734230   4.5697250
  10.9786420  59.1846690   4.1345250   9.5240040  60.4658640   6.7214810
   8.7482140  59.9859080   7.0113380  10.1752970  59.7864290   6.5470970
   3.5405870  60.7778450   7.5990570   2.7090750  60.5227160   7.9987080
   4.1486850  60.8489220   8.3348490  13.5447470  64.8718830   5.5013940
  13.0829000  64.1006070   5.8301110  14.3573020  64.8984900   6.0066390
   3.5207130  64.8118540   7.7948590   3.8235170  63.9216280   7.6158810
   4.2650720  65.3688760   7.5670840   9.7710780  67.1576840   5.1217930
   9.1522220  67.6134340   4.5512370  10.6262560  67.3128300   4.7207630
   8.9649030  63.1415830   6.7284970   8.8957310  62.2005770   6.5674100
   9.7268890  63.2317240   7.3007540   9.9954200  55.9486210   6.9553900
  10.3719020  55.0758090   6.8427570   9.8973710  56.2844910   6.0644340
   4.1259210  54.3211840   2.4171340   4.2325960  55.2215570   2.7240100
   3.2151570  54.2729810   2.1265990  13.7778320  53.4436650   3.8882240
  14.5987940  52.9533220   3.9307720  13.8112400  54.0334310   4.6414080
   5.9666940  57.2898210   6.7496520   6.4745160  57.7879180   7.3901540
   6.4980180  56.5133410   6.5735880  18.0677870  55.4603400  10.4525870
  17.3630040  55.8485110   9.9340980  18.3335790  56.1553690  11.0546800
   4.2503040  51.9296770  11.0159940   4.2521480  52.4469160  10.2105840
   3.4207350  51.4526950  10.9929870  10.6374130  62.0416080   2.5149840
  10.0191400  62.5065530   1.9512560  11.1497380  62.7343560   2.9319350
   5.5005890  61.5691950   9.1933440   5.1675270  62.1960870   9.8354510
   5.6772570  62.0953830   8.4135110  14.0139800  55.3837030   6.6609780
  13.3095370  55.6721920   7.2412890  14.3751960  56.1937140   6.3009340
   3.9318370  53.6406730   9.0230390   4.2735180  54.4848780   8.7284260
   2.9934180  53.7890470   9.1395730   4.7124990  63.5372750  11.0082620
   5.3298990  64.2123830  10.7267070   3.8518110  63.9460730  10.9170120
  15.6302580  65.0012160   8.9237260  14.9466100  65.6711270   8.9153930
  16.1696870  65.1992810   8.1582120  17.0826720  54.8291820   7.0518990
  16.1351630  54.8630800   7.1834420  17.4076710  55.6430770   7.4368350
   7.6146260  51.1289000   5.3474980   7.9221240  50.5735890   4.6310480
   6.6846960  51.2633460   5.1647970  13.1661320  66.8456290   7.6382440
  13.1788480  66.4418580   6.7704700  12.6136540  67.6203580   7.5343870
  14.4606740  63.5672510   2.7272610  14.3503070  62.6246840   2.8522030
  14.4574990  63.9288150   3.6135370  12.5646760  61.7486130   8.9665050
  12.9815550  61.5346240   8.1318510  13.2886580  62.0058920   9.5373670
  10.0027020  59.1937830   2.0835100   9.0756300  59.1275210   2.3123570
  10.1551840  60.1317960   1.9690340  16.5108860  60.1473350   9.0581290
  15.6827490  60.2166440   8.5831420  17.1059340  60.7327660   8.5897120
  14.0324310  60.7558130   2.5870350  13.4136730  60.4177680   1.9396650
  14.0148760  60.1117890   3.2949540  13.4750870  56.9342670  10.0036160
  13.0622050  57.7596380  10.2576150  12.7426820  56.3487710   9.8112520
   5.6083660  59.7202570   4.8654830   5.2040660  59.0079820   4.3700730
   5.6946780  59.3755810   5.7542870   6.0765360  63.4070130   7.0294040
   5.7793650  62.8015600   6.3501820   7.0265180  63.4447440   6.9183400
   4.3212280  56.4945780   8.6453870   4.8726870  56.6041120   7.8707120
   4.8355790  56.8683380   9.3609100  14.1650970  66.9802000  10.6917140
  13.6881530  67.7874190  10.4989750  13.4812760  66.3280330  10.8443350
   5.1683790  63.1451820  13.6801840   4.2712320  63.3691790  13.9275240
   5.1936660  63.2686760  12.7313240   3.9955010  60.0165140  12.2559210
   3.8562780  60.8887940  12.6246610   3.1136370  59.6737950  12.1107150
  10.3184390  64.9341010   3.5624340  10.7580300  65.6765340   3.1479730
  10.2571280  65.1767580   4.4863300   5.7935360  65.9586840  14.4644360
   5.7650790  66.3629790  13.5972790   5.6300330  65.0297200  14.3015960
   2.3088290  58.6147550   2.3661480   2.1885890  59.3409640   1.7542750
   1.9989180  57.8450460   1.8889390  17.7450180  66.7413940  15.7608530
  18.2209900  67.2196830  16.4397610  18.3657340  66.6731430  15.0354030
  17.1483430  63.9326790  12.9208540  17.2746490  63.6938670  12.0025720
  17.1904810  63.1011330  13.3930620  11.0100170  67.6354790  11.4903350
  11.5244840  67.5462800  12.2925780  10.1669250  67.9814490  11.7831260
   5.4642950  67.7008660   2.6958970   5.2885430  66.7844200   2.4826770
   4.6098690  68.0595950   2.9356770  12.2530630  67.0560400   3.5533840
  12.7087580  66.2749780   3.8672460  12.5923150  67.7667220   4.0975020
  17.0007440  55.9859250  13.8858280  16.3851710  56.4938920  13.3573740
  16.6803860  55.0857580  13.8284220   4.7751950  51.9582620   5.7485150
   4.3320100  52.7392160   5.4169670   5.3336940  52.2812510   6.4556090
   9.0621760  54.8251140  11.3520470   8.6001130  55.0334160  12.1640410
   8.6599870  54.0110490  11.0491140  14.0626270  56.0460090  12.4817130
  13.2119860  55.7465840  12.8026200  13.9028060  56.2902100  11.5700950
  11.1575980  57.5461840  14.5815920  11.4829390  56.7125590  14.2418150
  11.9456310  58.0690360  14.7294250   6.8127850  52.5029950   7.6074750
   7.1100180  53.4092780   7.5266770   7.3613410  52.0148730   6.9934320
   4.5666170  57.0816190   3.4766400   4.3407090  56.8653360   4.3813020
   3.7858700  57.5144650   3.1312370   7.0065380  57.9801770  14.1426670
   6.9108980  57.0396500  13.9927070   7.8497360  58.2016840  13.7474740
  10.4028800  55.7243100   4.1060330  10.7958370  56.0415300   3.2929020
  10.7645650  54.8454980   4.2204850   8.7120970  54.4750410  15.3657190
   8.0219290  54.2822610  16.0003280   9.4553270  54.7585050  15.8981490
  10.9883940  58.3148850   8.2011110  10.2565060  58.8235660   8.5501210
  10.5908280  57.4978830   7.8999890   7.4261330  54.9903050   6.6063600
   7.4297390  54.5493000   5.7568140   8.3212450  55.3120380   6.7135420
   3.2763710  54.8729540   5.5657810   2.9363760  55.3504770   6.3224860
   2.5141030  54.4194660   5.2058910  11.4509850  53.7682530   7.6134050
  11.4682590  54.2191180   8.4575900  11.2025430  52.8688170   7.8267490
  14.8780600  51.1814710  13.4520430  15.2026370  50.4504370  13.9778410
  14.9137110  50.8628350  12.5501420   7.7269300  59.0504830   8.3529010
   8.0939430  58.5763400   9.0990350   7.5374360  59.9246400   8.6937350
   5.5168670  58.0913470  10.6713220   5.2125740  58.9705450  10.8963580
   6.4715130  58.1513260  10.7070660  14.8038440  61.2939820   7.0606460
  15.5237560  61.7895110   6.6702570  14.6020260  60.6157710   6.4160330
  10.1857240  61.3648880  12.9475460  10.1194550  60.4444550  12.6933050
   9.5562380  61.4624320  13.6620100   4.0887860  61.9654840   4.9058880
   4.6066530  61.1623100   4.8515770   3.6371880  61.9033980   5.7475710
   4.7745520  59.3900450  14.7024130   4.4745660  59.5357630  13.8051950
   5.5456760  58.8305740  14.6097520  10.1173970  64.1869450  12.6979260
  10.1318510  63.2550410  12.4798170   9.4099070  64.2729210  13.3369030
  16.3285180  60.8276790  12.0447840  15.6033370  61.4205570  11.8477230
  16.8560640  60.8200330  11.2461210  11.8584770  62.5536960   5.5431690
  12.2108590  61.9565090   4.8833060  10.9747100  62.2281190   5.7139940
   7.9448050  63.3134650   2.9502100   8.6319180  63.8603860   3.3309690
   7.1580470  63.8575380   2.9851710   7.2475260  60.3180680   2.5627460
   7.7038040  61.1285930   2.7887650   6.8963470  60.0003820   3.3945950
   9.5507870  65.8287020   9.7919760  10.1950090  66.0346400  10.4693180
   9.9137310  65.0675420   9.3390610   3.1487040  50.6618330   3.0349980
   3.0201670  50.6536230   3.9834900   2.3249060  51.0001420   2.6840990
  10.8239950  63.8319370   8.5097210  11.4662180  63.1312530   8.6229380
  11.3489300  64.6117810   8.3294100  12.5977570  64.6314270  11.7133270
  12.9333810  65.2180960  12.3911190  11.6777910  64.5006980  11.9431060
   8.4266150  64.6805600  14.8821330   8.1063020  63.9614840  15.4267020
   7.7524510  65.3560670  14.9557390  11.6419750  54.9131760  10.2458130
  12.0100570  54.0926970  10.5737700  10.7817950  54.9733650  10.6613780
   6.9765810  56.1474650   2.4703570   6.2681960  56.6160990   2.9117180
   7.2610290  55.4896660   3.1048760   8.6021740  57.5671350  10.4696100
   9.1006990  58.0417170  11.1347950   8.7444690  56.6434870  10.6766130
  11.0081240  52.8725310   3.9099360  10.8849020  52.8911440   2.9608870
  11.9565800  52.9204250   4.0297760   8.0958030  68.1080610   3.1827340
   8.3499530  68.0702000   2.2606710   7.1470510  67.9813940   3.1755590
  15.8088600  53.7839310  11.3124490  15.3062200  54.5244710  11.6518300
  16.6245260  54.1723310  10.9961280  14.1010610  59.0272490   4.7585850
  13.1600750  59.0422720   4.9333540  14.4154680  58.2408450   5.2046150
  16.1036190  66.1981340   6.4340110  16.2283610  67.0212510   6.9063920
  16.9701750  65.9872070   6.0864260   3.5753720  68.2912550   6.1057240
   4.3116200  67.7428010   6.3765810   3.9594640  69.1568560   5.9663230
   2.5812000  67.4758620  15.2942820   3.3824730  67.7970670  15.7078220
   2.0663820  67.1154200  16.0162730  11.4176630  63.5838490  15.2418230
  10.8114790  63.6070090  14.5013980  11.1130740  62.8521530  15.7785480
  12.8477000  67.3118780  13.8527640  13.7998750  67.2276800  13.8027880
  12.7005220  67.9760490  14.5261430   7.3547750  61.3703070  13.7714390
   6.5893420  61.9388070  13.6869060   7.5363710  61.0779280  12.8782620
  14.4971100  63.1008400  14.3289410  15.2380570  63.4384160  13.8256870
  13.7343780  63.2700460  13.7759180   2.3332890  58.1061670  15.1328940
   2.3738230  57.8075540  16.0414170   3.1878390  58.5069280  14.9736460
   4.2738700  56.6853770  13.1003430   3.7435160  56.1944720  12.4726770
   4.9426770  57.1137970  12.5661360  13.1716760  61.1523230  12.8644620
  13.5857780  61.3068310  13.7135040  12.2367760  61.2778450  13.0270400
  13.6438930  58.4919390  14.8683770  14.2259700  57.7371710  14.7804250
  13.8200700  59.0226830  14.0915250   4.7611000  53.6516140  13.1800720
   4.6667870  53.0336890  12.4551590   4.1808390  54.3782430  12.9530630
   7.5272440  52.2089380  10.2128110   7.0789740  52.2313640   9.3673660
   6.8937640  51.8108400  10.8098410   7.9331990  61.1043710  10.8340550
   8.3520100  61.9476440  10.6616790   7.0140620  61.2415750  10.6047330
  10.2695890  58.8359890  12.2178390  10.3892100  58.2401030  12.9573230
  11.1289890  58.8729580  11.7979690  12.6083790  59.3897080  10.7940900
  12.0819010  59.9139700  10.1906040  12.9515130  60.0224470  11.4250630
   5.7839410  67.4096720  11.9498280   5.2460500  68.1342780  11.6306980
   6.0373370  66.9327060  11.1595620   7.0364660  55.3781240  13.4754210
   7.6264350  55.0697090  14.1632030   6.2184900  54.9060990  13.6314110
  11.8558090  54.9947050  13.7087230  11.1673610  54.3328590  13.6437220
  12.5764110  54.5485320  14.1535690   8.6401620  68.6447930  12.2084930
   8.5660320  69.5483070  12.5157300   7.7380460  68.3259830  12.1807000
   4.6390830  64.3031530   3.1720520   4.3386370  64.1796500   4.0724430
   4.5328320  63.4440120   2.7636250  16.1681300  66.3410110  12.5377490
  15.5683290  66.4002670  11.7941410  16.2975200  65.4015090  12.6674340
  17.8699180  61.6825510   5.2223330  18.2408010  60.8992830   4.8159300
  18.5101110  62.3714610   5.0440630  14.8532940  63.0662090  10.6353650
  14.0392780  63.4959250  10.8979440  15.2607140  63.6780500  10.0222700
  16.8123720  59.0578770   2.5283350  16.4367320  58.2906700   2.0964640
  16.0826840  59.4401470   3.0158280  16.2023340  58.2050290  12.1622870
  15.9709430  57.9763040  11.2620820  16.4627890  59.1249840  12.1167760
  14.6411410  53.4306720  14.9402570  15.5181590  53.4390120  15.3236570
  14.6532250  52.6937560  14.3294920  16.0874680  57.2836260   5.8290590
  16.6112160  56.7898910   5.1980760  16.6734100  57.4186620   6.5738160
  16.2664400  57.3676130   9.3510140  15.3167110  57.3339670   9.4655130
  16.4477410  58.2776240   9.1159910  15.5774650  56.5409610   1.7683000
  16.0733770  56.3080480   2.5531880  15.3790720  55.7021450   1.3520640
  17.0061810  55.1770560   4.3020680  16.8961090  55.0226600   5.2402950
  17.7669400  54.6491500   4.0596090  15.3527530  51.1164690  10.7603680
  15.9899750  51.7298830  11.1262870  15.5002420  51.1525350   9.8152910
  14.9108990  67.8180690   4.1621920  15.5068060  67.4965260   3.4856340
  15.1687140  67.3452510   4.9535190   2.8171560  64.2498600  14.3112550
   2.7741190  63.8791510  15.1927010   2.9482570  65.1876170  14.4514370
   6.5177590  65.8058190   9.9122270   6.2768950  66.0732750   9.0252790
   7.4580230  65.9763920   9.9673130   8.7232010  52.2690880  13.6678780
   8.6620900  52.8612710  14.4174190   9.6632390  52.1616840  13.5229040
  11.3606570  51.9260940  13.3071070  11.9746980  52.2440230  12.6452150
  11.9056130  51.4409530  13.9266930  17.7781750  67.8252570  10.7132910
  17.2840030  68.2221440   9.9960040  17.1695040  67.2001780  11.1070190
   1.8827830  50.6055200  13.4210130   2.4310820  50.4243250  12.6576240
   1.9483140  49.8149310  13.9566440   2.6559590  67.1960850  11.4310330
   2.0619910  67.0645550  12.1700370   2.6483430  66.3598990  10.9652430
  12.1014610  50.4893080   9.6340360  11.2274450  50.8228190   9.4313290
  11.9925360  50.0166260  10.4592230  13.0086590  52.6963950  11.0182080
  12.6799950  51.8815710  10.6383810  13.9568890  52.6533760  10.8947770
  15.4621200  68.4675990   7.9919650  15.0024170  69.2191800   7.6177670
  14.8333660  67.7482460   7.9334450   5.8916920  66.7764230   7.1667780
   6.4081940  66.1651590   6.6416040   6.5414300  67.2793010   7.6578790
   8.6312420  67.6672720   7.9936760   8.9190230  67.4127020   7.1169770
   9.1435640  67.1150080   8.5842330   9.8489430  51.4062920   8.5733270
   9.0661220  51.8808420   8.8530030   9.5552360  50.5017750   8.4646450
  14.4010500  52.1086020   6.6182360  14.8418590  52.0531120   5.7703960
  14.1318090  53.0244030   6.6892540  16.2649070  51.7401260   4.6291180
  16.2037470  50.7962480   4.4822200  17.0441100  51.8481350   5.1744640
   7.7343650  53.8249670   4.0849300   6.9218160  53.4506560   3.7445180
   8.2385290  53.0694750   4.3870490  12.2368630  50.4892120   5.3232370
  12.8398000  51.0612330   5.7980890  11.4961620  51.0531560   5.1006270
   5.7592830  51.9749590   2.6894350   5.1295570  51.2736900   2.8564480
   5.2197970  52.7353720   2.4727510   8.6984780  68.5888820  15.3604960
   9.6252090  68.3533090  15.4040920   8.6835210  69.4160820  14.8790990
  16.9329840  68.1314390   2.3579210  17.1082030  67.4452130   1.7140130
  16.2351410  68.6561440   1.9655880   5.8848390  51.2533570  15.1246840
   5.6032660  51.7567170  14.3607660   6.2668090  50.4555320  14.7588970
  12.4863850  50.6687150  15.7027310  12.3729300  50.9881760  16.5978830
  13.3033590  51.0699660  15.4064590  15.2662340  67.8158680  15.1846000
  16.0587660  67.3207910  14.9771960  15.5595490  68.4948820  15.7921610
  11.3922000  39.9136130  61.1636010  11.3116050  38.9990740  60.8927720
  10.9786420  40.4103200  60.4575720   9.5240040  41.6915150  63.0445280
   8.7482140  41.2115590  63.3343850  10.1752970  41.0120800  62.8701440
   3.5405870  42.0034960  63.9221040   2.7090750  41.7483670  64.3217550
   4.1486850  42.0745730  64.6578960  13.5447470  46.0975340  61.8244410
  13.0829000  45.3262580  62.1531580  14.3573020  46.1241410  62.3296860
   3.5207130  46.0375050  64.1179060   3.8235170  45.1472790  63.9389280
   4.2650720  46.5945270  63.8901310   9.7710780  48.3833350  61.4448400
   9.1522220  48.8390850  60.8742840  10.6262560  48.5384810  61.0438100
   8.9649030  44.3672340  63.0515440   8.8957310  43.4262280  62.8904570
   9.7268890  44.4573750  63.6238010   9.9954200  37.1742720  63.2784370
  10.3719020  36.3014600  63.1658040   9.8973710  37.5101420  62.3874810
   4.1259210  35.5468350  58.7401810   4.2325960  36.4472080  59.0470570
   3.2151570  35.4986320  58.4496460  13.7778320  34.6693160  60.2112710
  14.5987940  34.1789730  60.2538190  13.8112400  35.2590820  60.9644550
   5.9666940  38.5154720  63.0726990   6.4745160  39.0135690  63.7132010
   6.4980180  37.7389920  62.8966350  18.0677870  36.6859910  66.7756340
  17.3630040  37.0741620  66.2571450  18.3335790  37.3810200  67.3777270
   4.2503040  33.1553280  67.3390410   4.2521480  33.6725670  66.5336310
   3.4207350  32.6783460  67.3160340  10.6374130  43.2672590  58.8380310
  10.0191400  43.7322040  58.2743030  11.1497380  43.9600070  59.2549820
   5.5005890  42.7948460  65.5163910   5.1675270  43.4217380  66.1584980
   5.6772570  43.3210340  64.7365580  14.0139800  36.6093540  62.9840250
  13.3095370  36.8978430  63.5643360  14.3751960  37.4193650  62.6239810
   3.9318370  34.8663240  65.3460860   4.2735180  35.7105290  65.0514730
   2.9934180  35.0146980  65.4626200   4.7124990  44.7629260  67.3313090
   5.3298990  45.4380340  67.0497540   3.8518110  45.1717240  67.2400590
  15.6302580  46.2268670  65.2467730  14.9466100  46.8967780  65.2384400
  16.1696870  46.4249320  64.4812590  17.0826720  36.0548330  63.3749460
  16.1351630  36.0887310  63.5064890  17.4076710  36.8687280  63.7598820
   7.6146260  32.3545510  61.6705450   7.9221240  31.7992400  60.9540950
   6.6846960  32.4889970  61.4878440  13.1661320  48.0712800  63.9612910
  13.1788480  47.6675090  63.0935170  12.6136540  48.8460090  63.8574340
  14.4606740  44.7929020  59.0503080  14.3503070  43.8503350  59.1752500
  14.4574990  45.1544660  59.9365840  12.5646760  42.9742640  65.2895520
  12.9815550  42.7602750  64.4548980  13.2886580  43.2315430  65.8604140
  10.0027020  40.4194340  58.4065570   9.0756300  40.3531720  58.6354040
  10.1551840  41.3574470  58.2920810   9.9896100  36.6911340  55.4032730
   9.0499770  36.8525300  55.4885190  10.3079360  37.4097020  54.8568720
  16.5108860  41.3729860  65.3811760  15.6827490  41.4422950  64.9061890
  17.1059340  41.9584170  64.9127590  14.0324310  41.9814640  58.9100820
  13.4136730  41.6434190  58.2627120  14.0148760  41.3374400  59.6180010
  13.4750870  38.1599180  66.3266630  13.0622050  38.9852890  66.5806620
  12.7426820  37.5744220  66.1342990   5.6083660  40.9459080  61.1885300
   5.2040660  40.2336330  60.6931200   5.6946780  40.6012320  62.0773340
   6.0765360  44.6326640  63.3524510   5.7793650  44.0272110  62.6732290
   7.0265180  44.6703950  63.2413870   4.3212280  37.7202290  64.9684340
   4.8726870  37.8297630  64.1937590   4.8355790  38.0939890  65.6839570
  14.1650970  48.2058510  67.0147610  13.6881530  49.0130700  66.8220220
  13.4812760  47.5536840  67.1673820  12.2089010  41.2201450  55.9173570
  12.6482290  40.3823880  55.7711390  12.9217430  41.8530850  56.0037710
  10.3184390  46.1597520  59.8854810  10.7580300  46.9021850  59.4710200
  10.2571280  46.4024090  60.8093770  15.7906150  32.4744260  54.2314610
  15.4778810  32.5671090  55.1313680  16.5518620  33.0525290  54.1812040
   2.3088290  39.8404060  58.6891950   2.1885890  40.5666150  58.0773220
   1.9989180  39.0706970  58.2119860  12.9854570  49.1466640  57.2417820
  12.8255710  48.8569580  58.1399650  12.8201280  48.3706770  56.7063050
   5.4642950  48.9265170  59.0189440   5.2885430  48.0100710  58.8057240
   4.6098690  49.2852460  59.2587240  12.6880700  46.6554200  55.8015820
  11.9945860  46.6531490  55.1418100  13.4303560  46.2313520  55.3709990
  12.2530630  48.2816910  59.8764310  12.7087580  47.5006290  60.1902930
  12.5923150  48.9923730  60.4205490   4.7751950  33.1839130  62.0715620
   4.3320100  33.9648670  61.7400140   5.3336940  33.5069020  62.7786560
   7.8910770  32.8049830  56.9521450   7.2664950  32.8009700  57.6774760
   7.8040890  31.9380790  56.5557420   6.8127850  33.7286460  63.9305220
   7.1100180  34.6349290  63.8497240   7.3613410  33.2405240  63.3164790
   4.5666170  38.3072700  59.7996870   4.3407090  38.0909870  60.7043490
   3.7858700  38.7401160  59.4542840  11.7963930  38.3136070  58.3987520
  11.1972820  39.0371870  58.2151140  12.3443540  38.2512850  57.6163970
  10.4028800  36.9499610  60.4290800  10.7958370  37.2671810  59.6159490
  10.7645650  36.0711490  60.5435320  10.9883940  39.5405360  64.5241580
  10.2565060  40.0492170  64.8731680  10.5908280  38.7235340  64.2230360
   7.4261330  36.2159560  62.9294070   7.4297390  35.7749510  62.0798610
   8.3212450  36.5376890  63.0365890   3.2763710  36.0986050  61.8888280
   2.9363760  36.5761280  62.6455330   2.5141030  35.6451170  61.5289380
   7.4881480  37.2171640  55.9200830   7.6094300  37.1758120  56.8686650
   7.1029990  38.0795790  55.7647560  11.4509850  34.9939040  63.9364520
  11.4682590  35.4447690  64.7806370  11.2025430  34.0944680  64.1497960
   6.5002980  39.5272780  55.3184130   5.9319880  39.0791030  54.6920040
   7.2091980  39.8865560  54.7849280   7.7269300  40.2761340  64.6759480
   8.0939430  39.8019910  65.4220820   7.5374360  41.1502910  65.0167820
   5.5168670  39.3169980  66.9943690   5.2125740  40.1961960  67.2194050
   6.4715130  39.3769770  67.0301130   4.0450460  43.5230970  57.5910540
   3.2712720  42.9828590  57.4309260   4.7745090  43.0037580  57.2528300
  14.8038440  42.5196330  63.3836930  15.5237560  43.0151620  62.9933040
  14.6020260  41.8414220  62.7390800  10.2648380  33.9134290  57.5266320
   9.4512990  33.4147460  57.4511630  10.0710330  34.7532540  57.1102670
  12.9796770  38.2853940  55.8228480  13.8676390  38.5971170  55.6479820
  12.9501860  37.4126190  55.4309060   4.0887860  43.1911350  61.2289350
   4.6066530  42.3879610  61.1746240   3.6371880  43.1290490  62.0706180
   8.9757360  44.4577630  56.5016650   9.3173060  45.2019860  56.0059970
   8.1470070  44.7708750  56.8641480  15.2511040  39.5965780  55.2908340
  15.1674760  40.0280000  54.4404780  15.9705230  40.0564130  55.7235160
  16.2798290  46.4508040  58.0190470  15.6374450  45.7963660  58.2934190
  15.8928950  46.8563130  57.2431140  11.8584770  43.7793470  61.8662160
  12.2108590  43.1821600  61.2063530  10.9747100  43.4537700  62.0370410
   7.9448050  44.5391160  59.2732570   8.6319180  45.0860370  59.6540160
   7.1580470  45.0831890  59.3082180   7.2475260  41.5437190  58.8857930
   7.7038040  42.3542440  59.1118120   6.8963470  41.2260330  59.7176420
   9.5507870  47.0543530  66.1150230  10.1950090  47.2602910  66.7923650
   9.9137310  46.2931930  65.6621080   3.1487040  31.8874840  59.3580450
   3.0201670  31.8792740  60.3065370   2.3249060  32.2257930  59.0071460
  10.8239950  45.0575880  64.8327680  11.4662180  44.3569040  64.9459850
  11.3489300  45.8374320  64.6524570  14.6695670  45.3424500  54.5566820
  14.4433250  44.6254940  55.1491460  14.2791870  45.0936940  53.7188570
  14.2511920  43.2596440  56.2180980  13.9633620  43.7209130  57.0058860
  15.0464090  42.7994210  56.4865200   6.4680320  46.7522560  56.1484950
   6.4590420  47.4852250  55.5329460   5.5478680  46.5054140  56.2411910
  11.6419750  36.1388270  66.5688600  12.0100570  35.3183480  66.8968170
  10.7817950  36.1990160  66.9844250  15.0081780  35.0945210  57.3776160
  14.3794940  35.1990880  56.6634390  14.5133700  35.3141990  58.1670040
   9.4539920  46.8150800  54.8110140   9.5551900  46.6114790  53.8812120
   8.5541660  46.5609080  55.0157920   6.9765810  37.3731160  58.7934040
   6.2681960  37.8417500  59.2347650   7.2610290  36.7153170  59.4279230
   8.6021740  38.7927860  66.7926570   9.1006990  39.2673680  67.4578420
   8.7444690  37.8691380  66.9996600  11.0081240  34.0981820  60.2329830
  10.8849020  34.1167950  59.2839340  11.9565800  34.1460760  60.3528230
   8.0958030  49.3337120  59.5057810   8.3499530  49.2958510  58.5837180
   7.1470510  49.2070450  59.4986060   5.1800830  35.6816240  56.1684750
   6.0291360  36.1186390  56.1024940   4.8132100  35.9936500  56.9956810
  14.1010610  40.2529000  61.0816320  13.1600750  40.2679230  61.2564010
  14.4154680  39.4664960  61.5276620   4.0792250  41.9348600  54.6420280
   4.8455520  41.8229960  55.2045710   4.1566940  41.2386570  53.9897050
   2.7739010  39.3673670  55.3253170   2.8542600  38.4201180  55.4370570
   3.6658760  39.6980550  55.4313830  16.1036190  47.4237850  62.7570580
  16.2283610  48.2469020  63.2294390  16.9701750  47.2128580  62.4094730
   3.5753720  49.5169060  62.4287710   4.3116200  48.9684520  62.6996280
   3.9594640  50.3825070  62.2893700   6.6856030  48.6899370  54.2513280
   7.4784640  48.9788200  53.7995070   6.1660380  48.2591540  53.5725760
  15.7386200  47.9169500  55.6750020  15.4527710  47.5034640  54.8604200
  15.5405750  48.8457210  55.5550540   7.2033430  43.9102780  54.1155630
   7.0984070  43.2955130  54.8417010   7.0357650  43.3868670  53.3318640
  10.4436160  42.9722810  54.7197620   9.8946260  43.4192110  55.3640360
  11.0655420  42.4672060  55.2435290   6.1111280  41.9313730  56.6162920
   6.5327700  41.7653600  57.4594310   6.2362120  41.1213960  56.1218060
   8.6238920  40.9551340  53.8640020   9.1444580  40.2400360  53.4981170
   9.2707320  41.5937210  54.1640530   7.5272440  33.4345890  66.5358580
   7.0789740  33.4570150  65.6904130   6.8937640  33.0364910  67.1328880
   7.9331990  42.3300220  67.1571020   8.3520100  43.1732950  66.9847260
   7.0140620  42.4672260  66.9277800  12.6083790  40.6153590  67.1171370
  12.0819010  41.1396210  66.5136510  12.9515130  41.2480980  67.7481100
   5.0070180  38.0046960  53.5621080   4.8059240  37.1414320  53.9234420
   4.8362230  37.9180320  52.6242680  12.4858490  32.8155190  56.0907960
  12.7660780  31.9723090  56.4467380  11.7124220  33.0478300  56.6046710
   3.8052980  35.1047580  53.5498960   4.1078880  35.1115010  52.6418110
   4.5447570  34.7545440  54.0466620   7.0237910  34.0482200  54.5355160
   6.6759910  33.3706190  53.9557610   7.2250680  33.5871710  55.3498550
   9.1886950  49.0362950  56.1541760  10.0837740  49.3747920  56.1760520
   9.2204580  48.3142360  55.5266040   2.8283110  44.4090000  54.3828760
   3.2657980  44.9519670  55.0386340   3.3130840  43.5836950  54.3925100
   4.6390830  45.5288040  59.4950990   4.3386370  45.4053010  60.3954900
   4.5328320  44.6696630  59.0866720  17.4082750  45.3084440  54.1977670
  16.5775710  45.3761090  54.6684900  17.5854580  46.1988560  53.8944530
  16.8639210  42.0531920  56.7011870  17.6258120  42.6228570  56.8071560
  16.8793580  41.4859120  57.4720180  17.8699180  42.9082020  61.5453800
  18.2408010  42.1249340  61.1389770  18.5101110  43.5971120  61.3671100
  14.8532940  44.2918600  66.9584120  14.0392780  44.7215760  67.2209910
  15.2607140  44.9037010  66.3453170  16.9158380  42.3466290  53.8584390
  17.1907220  43.2545170  53.7303610  16.7269120  42.2828820  54.7946380
  13.3133990  35.3711140  55.1538020  13.7318870  35.1842120  54.3134680
  13.0070050  34.5190190  55.4640950  16.8123720  40.2835280  58.8513820
  16.4367320  39.5163210  58.4195110  16.0826840  40.6657980  59.3388750
  16.0874680  38.5092770  62.1521060  16.6112160  38.0155420  61.5211230
  16.6734100  38.6443130  62.8968630  16.2664400  38.5932640  65.6740610
  15.3167110  38.5596180  65.7885600  16.4477410  39.5032750  65.4390380
   1.7683000  32.8973650  53.8241890   2.4911130  33.4382590  54.1423110
   2.0407520  32.6237070  52.9483430  15.5774650  37.7666120  58.0913470
  16.0733770  37.5336990  58.8762350  15.3790720  36.9277960  57.6751110
  17.0061810  36.4027070  60.6251150  16.8961090  36.2483110  61.5633420
  17.7669400  35.8748010  60.3826560  15.3527530  32.3421200  67.0834150
  15.9899750  32.9555340  67.4493340  15.5002420  32.3781860  66.1383380
  17.8952080  34.2334990  53.8657290  18.8201390  34.1016170  53.6575580
  17.8727870  34.3127810  54.8193740  17.9690570  35.0045650  56.4914000
  17.1742070  34.9390770  57.0206910  18.1733850  35.9396290  56.4799350
  14.9108990  49.0437200  60.4852390  15.5068060  48.7221770  59.8086810
  15.1687140  48.5709020  61.2765660   6.5177590  47.0314700  66.2352740
   6.2768950  47.2989260  65.3483260   7.4580230  47.2020430  66.2903600
  17.7781750  49.0509080  67.0363380  17.2840030  49.4477950  66.3190510
  17.1695040  48.4258290  67.4300660  12.1014610  31.7149590  65.9570830
  11.2274450  32.0484700  65.7543760  11.9925360  31.2422770  66.7822700
  13.0086590  33.9220460  67.3412550  12.6799950  33.1072220  66.9614280
  13.9568890  33.8790270  67.2178240  15.4621200  49.6932500  64.3150120
  15.0024170  50.4448310  63.9408140  14.8333660  48.9738970  64.2564920
   5.8916920  48.0020740  63.4898250   6.4081940  47.3908100  62.9646510
   6.5414300  48.5049520  63.9809260   8.6312420  48.8929230  64.3167230
   8.9190230  48.6383530  63.4400240   9.1435640  48.3406590  64.9072800
   9.8489430  32.6319430  64.8963740   9.0661220  33.1064930  65.1760500
   9.5552360  31.7274260  64.7876920  14.4010500  33.3342530  62.9412830
  14.8418590  33.2787630  62.0934430  14.1318090  34.2500540  63.0123010
  16.2649070  32.9657770  60.9521650  16.2037470  32.0218990  60.8052670
  17.0441100  33.0737860  61.4975110   7.7343650  35.0506180  60.4079770
   6.9218160  34.6763070  60.0675650   8.2385290  34.2951260  60.7100960
  12.2368630  31.7148630  61.6462840  12.8398000  32.2868840  62.1211360
  11.4961620  32.2788070  61.4236740  15.3803230  32.1170190  56.9203120
  15.5753860  33.0153640  57.1870550  14.5933100  31.8857270  57.4136070
   3.5654990  33.4630960  55.9579430   4.0947750  32.6760760  55.8287380
   4.1983310  34.1422150  56.1914960   5.7592830  33.2006100  59.0124820
   5.1295570  32.4993410  59.1794950   5.2197970  33.9610230  58.7957980
  16.9329840  49.3570900  58.6809680  17.1082030  48.6708640  58.0370600
  16.2351410  49.8817950  58.2886350   4.7757490  49.7465740  56.2344990
   5.5076310  49.4625020  55.6868880   5.0351160  49.5079020  57.1244370
   3.9372280  45.8630470  56.2391320   3.3081160  46.3315570  56.7877150
   4.0520110  45.0179690  56.6737510  11.3922000  39.9136130  42.3892520
  11.3116050  38.9990740  42.1184230  10.9786420  40.4103200  41.6832230
   9.5240040  41.6915150  44.2701790   8.7482140  41.2115590  44.5600360
  10.1752970  41.0120800  44.0957950   3.5405870  42.0034960  45.1477550
   2.7090750  41.7483670  45.5474060   4.1486850  42.0745730  45.8835470
  13.5447470  46.0975340  43.0500920  13.0829000  45.3262580  43.3788090
  14.3573020  46.1241410  43.5553370   3.5207130  46.0375050  45.3435570
   3.8235170  45.1472790  45.1645790   4.2650720  46.5945270  45.1157820
   9.7710780  48.3833350  42.6704910   9.1522220  48.8390850  42.0999350
  10.6262560  48.5384810  42.2694610   8.9649030  44.3672340  44.2771950
   8.8957310  43.4262280  44.1161080   9.7268890  44.4573750  44.8494520
   9.9954200  37.1742720  44.5040880  10.3719020  36.3014600  44.3914550
   9.8973710  37.5101420  43.6131320   4.1259210  35.5468350  39.9658320
   4.2325960  36.4472080  40.2727080   3.2151570  35.4986320  39.6752970
  13.7778320  34.6693160  41.4369220  14.5987940  34.1789730  41.4794700
  13.8112400  35.2590820  42.1901060   5.9666940  38.5154720  44.2983500
   6.4745160  39.0135690  44.9388520   6.4980180  37.7389920  44.1222860
  18.0677870  36.6859910  48.0012850  17.3630040  37.0741620  47.4827960
  18.3335790  37.3810200  48.6033780   4.2503040  33.1553280  48.5646920
   4.2521480  33.6725670  47.7592820   3.4207350  32.6783460  48.5416850
  10.6374130  43.2672590  40.0636820  10.0191400  43.7322040  39.4999540
  11.1497380  43.9600070  40.4806330   5.5005890  42.7948460  46.7420420
   5.1675270  43.4217380  47.3841490   5.6772570  43.3210340  45.9622090
  14.0139800  36.6093540  44.2096760  13.3095370  36.8978430  44.7899870
  14.3751960  37.4193650  43.8496320   3.9318370  34.8663240  46.5717370
   4.2735180  35.7105290  46.2771240   2.9934180  35.0146980  46.6882710
   4.7124990  44.7629260  48.5569600   5.3298990  45.4380340  48.2754050
   3.8518110  45.1717240  48.4657100  15.6302580  46.2268670  46.4724240
  14.9466100  46.8967780  46.4640910  16.1696870  46.4249320  45.7069100
  17.0826720  36.0548330  44.6005970  16.1351630  36.0887310  44.7321400
  17.4076710  36.8687280  44.9855330   7.6146260  32.3545510  42.8961960
   7.9221240  31.7992400  42.1797460   6.6846960  32.4889970  42.7134950
  13.1661320  48.0712800  45.1869420  13.1788480  47.6675090  44.3191680
  12.6136540  48.8460090  45.0830850  14.4606740  44.7929020  40.2759590
  14.3503070  43.8503350  40.4009010  14.4574990  45.1544660  41.1622350
  12.5646760  42.9742640  46.5152030  12.9815550  42.7602750  45.6805490
  13.2886580  43.2315430  47.0860650  10.0027020  40.4194340  39.6322080
   9.0756300  40.3531720  39.8610550  10.1551840  41.3574470  39.5177320
   9.9896100  36.6911340  36.6289240   9.0499770  36.8525300  36.7141700
  10.3079360  37.4097020  36.0825230  16.5108860  41.3729860  46.6068270
  15.6827490  41.4422950  46.1318400  17.1059340  41.9584170  46.1384100
  14.0324310  41.9814640  40.1357330  13.4136730  41.6434190  39.4883630
  14.0148760  41.3374400  40.8436520  13.4750870  38.1599180  47.5523140
  13.0622050  38.9852890  47.8063130  12.7426820  37.5744220  47.3599500
   5.6083660  40.9459080  42.4141810   5.2040660  40.2336330  41.9187710
   5.6946780  40.6012320  43.3029850   6.0765360  44.6326640  44.5781020
   5.7793650  44.0272110  43.8988800   7.0265180  44.6703950  44.4670380
   4.3212280  37.7202290  46.1940850   4.8726870  37.8297630  45.4194100
   4.8355790  38.0939890  46.9096080  14.1650970  48.2058510  48.2404120
  13.6881530  49.0130700  48.0476730  13.4812760  47.5536840  48.3930330
   5.1683790  44.3708330  51.2288820   4.2712320  44.5948300  51.4762220
   5.1936660  44.4943270  50.2800220  12.2089010  41.2201450  37.1430080
  12.6482290  40.3823880  36.9967900  12.9217430  41.8530850  37.2294220
   3.9955010  41.2421650  49.8046190   3.8562780  42.1144450  50.1733590
   3.1136370  40.8994460  49.6594130  10.3184390  46.1597520  41.1111320
  10.7580300  46.9021850  40.6966710  10.2571280  46.4024090  42.0350280
   5.7935360  47.1843350  52.0131340   5.7650790  47.5886300  51.1459770
   5.6300330  46.2553710  51.8502940  15.7906150  32.4744260  35.4571120
  15.4778810  32.5671090  36.3570190  16.5518620  33.0525290  35.4068550
   2.3088290  39.8404060  39.9148460   2.1885890  40.5666150  39.3029730
   1.9989180  39.0706970  39.4376370  17.7450180  47.9670450  53.3095510
  18.2209900  48.4453340  53.9884590  18.3657340  47.8987940  52.5841010
  17.1483430  45.1583300  50.4695520  17.2746490  44.9195180  49.5512700
  17.1904810  44.3267840  50.9417600  11.0100170  48.8611300  49.0390330
  11.5244840  48.7719310  49.8412760  10.1669250  49.2071000  49.3318240
  12.9854570  49.1466640  38.4674330  12.8255710  48.8569580  39.3656160
  12.8201280  48.3706770  37.9319560   5.4642950  48.9265170  40.2445950
   5.2885430  48.0100710  40.0313750   4.6098690  49.2852460  40.4843750
  12.6880700  46.6554200  37.0272330  11.9945860  46.6531490  36.3674610
  13.4303560  46.2313520  36.5966500  12.2530630  48.2816910  41.1020820
  12.7087580  47.5006290  41.4159440  12.5923150  48.9923730  41.6462000
  17.0007440  37.2115760  51.4345260  16.3851710  37.7195430  50.9060720
  16.6803860  36.3114090  51.3771200   4.7751950  33.1839130  43.2972130
   4.3320100  33.9648670  42.9656650   5.3336940  33.5069020  44.0043070
   9.0621760  36.0507650  48.9007450   8.6001130  36.2590670  49.7127390
   8.6599870  35.2367000  48.5978120  14.0626270  37.2716600  50.0304110
  13.2119860  36.9722350  50.3513180  13.9028060  37.5158610  49.1187930
  11.1575980  38.7718350  52.1302900  11.4829390  37.9382100  51.7905130
  11.9456310  39.2946870  52.2781230   7.8910770  32.8049830  38.1777960
   7.2664950  32.8009700  38.9031270   7.8040890  31.9380790  37.7813930
   6.8127850  33.7286460  45.1561730   7.1100180  34.6349290  45.0753750
   7.3613410  33.2405240  44.5421300   4.5666170  38.3072700  41.0253380
   4.3407090  38.0909870  41.9300000   3.7858700  38.7401160  40.6799350
  11.7963930  38.3136070  39.6244030  11.1972820  39.0371870  39.4407650
  12.3443540  38.2512850  38.8420480   7.0065380  39.2058280  51.6913650
   6.9108980  38.2653010  51.5414050   7.8497360  39.4273350  51.2961720
  10.4028800  36.9499610  41.6547310  10.7958370  37.2671810  40.8416000
  10.7645650  36.0711490  41.7691830   8.7120970  35.7006920  52.9144170
   8.0219290  35.5079120  53.5490260   9.4553270  35.9841560  53.4468470
  10.9883940  39.5405360  45.7498090  10.2565060  40.0492170  46.0988190
  10.5908280  38.7235340  45.4486870   7.4261330  36.2159560  44.1550580
   7.4297390  35.7749510  43.3055120   8.3212450  36.5376890  44.2622400
   3.2763710  36.0986050  43.1144790   2.9363760  36.5761280  43.8711840
   2.5141030  35.6451170  42.7545890   7.4881480  37.2171640  37.1457340
   7.6094300  37.1758120  38.0943160   7.1029990  38.0795790  36.9904070
  11.4509850  34.9939040  45.1621030  11.4682590  35.4447690  46.0062880
  11.2025430  34.0944680  45.3754470   6.5002980  39.5272780  36.5440640
   5.9319880  39.0791030  35.9176550   7.2091980  39.8865560  36.0105790
  14.8780600  32.4071220  51.0007410  15.2026370  31.6760880  51.5265390
  14.9137110  32.0884860  50.0988400   7.7269300  40.2761340  45.9015990
   8.0939430  39.8019910  46.6477330   7.5374360  41.1502910  46.2424330
   5.5168670  39.3169980  48.2200200   5.2125740  40.1961960  48.4450560
   6.4715130  39.3769770  48.2557640   4.0450460  43.5230970  38.8167050
   3.2712720  42.9828590  38.6565770   4.7745090  43.0037580  38.4784810
  14.8038440  42.5196330  44.6093440  15.5237560  43.0151620  44.2189550
  14.6020260  41.8414220  43.9647310  10.2648380  33.9134290  38.7522830
   9.4512990  33.4147460  38.6768140  10.0710330  34.7532540  38.3359180
  10.1857240  42.5905390  50.4962440  10.1194550  41.6701060  50.2420030
   9.5562380  42.6880830  51.2107080  12.9796770  38.2853940  37.0484990
  13.8676390  38.5971170  36.8736330  12.9501860  37.4126190  36.6565570
   4.0887860  43.1911350  42.4545860   4.6066530  42.3879610  42.4002750
   3.6371880  43.1290490  43.2962690   8.9757360  44.4577630  37.7273160
   9.3173060  45.2019860  37.2316480   8.1470070  44.7708750  38.0897990
   4.7745520  40.6156960  52.2511110   4.4745660  40.7614140  51.3538930
   5.5456760  40.0562250  52.1584500  10.1173970  45.4125960  50.2466240
  10.1318510  44.4806920  50.0285150   9.4099070  45.4985720  50.8856010
  15.2511040  39.5965780  36.5164850  15.1674760  40.0280000  35.6661290
  15.9705230  40.0564130  36.9491670  16.3285180  42.0533300  49.5934820
  15.6033370  42.6462080  49.3964210  16.8560640  42.0456840  48.7948190
  16.2798290  46.4508040  39.2446980  15.6374450  45.7963660  39.5190700
  15.8928950  46.8563130  38.4687650  11.8584770  43.7793470  43.0918670
  12.2108590  43.1821600  42.4320040  10.9747100  43.4537700  43.2626920
   7.9448050  44.5391160  40.4989080   8.6319180  45.0860370  40.8796670
   7.1580470  45.0831890  40.5338690   7.2475260  41.5437190  40.1114440
   7.7038040  42.3542440  40.3374630   6.8963470  41.2260330  40.9432930
   9.5507870  47.0543530  47.3406740  10.1950090  47.2602910  48.0180160
   9.9137310  46.2931930  46.8877590   3.1487040  31.8874840  40.5836960
   3.0201670  31.8792740  41.5321880   2.3249060  32.2257930  40.2327970
  10.8239950  45.0575880  46.0584190  11.4662180  44.3569040  46.1716360
  11.3489300  45.8374320  45.8781080  14.6695670  45.3424500  35.7823330
  14.4433250  44.6254940  36.3747970  14.2791870  45.0936940  34.9445080
  12.5977570  45.8570780  49.2620250  12.9333810  46.4437470  49.9398170
  11.6777910  45.7263490  49.4918040  14.2511920  43.2596440  37.4437490
  13.9633620  43.7209130  38.2315370  15.0464090  42.7994210  37.7121710
   8.4266150  45.9062110  52.4308310   8.1063020  45.1871350  52.9754000
   7.7524510  46.5817180  52.5044370   6.4680320  46.7522560  37.3741460
   6.4590420  47.4852250  36.7585970   5.5478680  46.5054140  37.4668420
  11.6419750  36.1388270  47.7945110  12.0100570  35.3183480  48.1224680
  10.7817950  36.1990160  48.2100760  15.0081780  35.0945210  38.6032670
  14.3794940  35.1990880  37.8890900  14.5133700  35.3141990  39.3926550
   9.4539920  46.8150800  36.0366650   9.5551900  46.6114790  35.1068630
   8.5541660  46.5609080  36.2414430   6.9765810  37.3731160  40.0190550
   6.2681960  37.8417500  40.4604160   7.2610290  36.7153170  40.6535740
   8.6021740  38.7927860  48.0183080   9.1006990  39.2673680  48.6834930
   8.7444690  37.8691380  48.2253110  11.0081240  34.0981820  41.4586340
  10.8849020  34.1167950  40.5095850  11.9565800  34.1460760  41.5784740
   8.0958030  49.3337120  40.7314320   8.3499530  49.2958510  39.8093690
   7.1470510  49.2070450  40.7242570   5.1800830  35.6816240  37.3941260
   6.0291360  36.1186390  37.3281450   4.8132100  35.9936500  38.2213320
  15.8088600  35.0095820  48.8611470  15.3062200  35.7501220  49.2005280
  16.6245260  35.3979820  48.5448260  14.1010610  40.2529000  42.3072830
  13.1600750  40.2679230  42.4820520  14.4154680  39.4664960  42.7533130
   4.0792250  41.9348600  35.8676790   4.8455520  41.8229960  36.4302220
   4.1566940  41.2386570  35.2153560   2.7739010  39.3673670  36.5509680
   2.8542600  38.4201180  36.6627080   3.6658760  39.6980550  36.6570340
  16.1036190  47.4237850  43.9827090  16.2283610  48.2469020  44.4550900
  16.9701750  47.2128580  43.6351240   3.5753720  49.5169060  43.6544220
   4.3116200  48.9684520  43.9252790   3.9594640  50.3825070  43.5150210
   2.5812000  48.7015130  52.8429800   3.3824730  49.0227180  53.2565200
   2.0663820  48.3410710  53.5649710   6.6856030  48.6899370  35.4769790
   7.4784640  48.9788200  35.0251580   6.1660380  48.2591540  34.7982270
  11.4176630  44.8095000  52.7905210  10.8114790  44.8326600  52.0500960
  11.1130740  44.0778040  53.3272460  12.8477000  48.5375290  51.4014620
  13.7998750  48.4533310  51.3514860  12.7005220  49.2017000  52.0748410
  15.7386200  47.9169500  36.9006530  15.4527710  47.5034640  36.0860710
  15.5405750  48.8457210  36.7807050   7.2033430  43.9102780  35.3412140
   7.0984070  43.2955130  36.0673520   7.0357650  43.3868670  34.5575150
   7.3547750  42.5959580  51.3201370   6.5893420  43.1644580  51.2356040
   7.5363710  42.3035790  50.4269600  10.4436160  42.9722810  35.9454130
   9.8946260  43.4192110  36.5896870  11.0655420  42.4672060  36.4691800
  14.4971100  44.3264910  51.8776390  15.2380570  44.6640670  51.3743850
  13.7343780  44.4956970  51.3246160   2.3332890  39.3318180  52.6815920
   2.3738230  39.0332050  53.5901150   3.1878390  39.7325790  52.5223440
   6.1111280  41.9313730  37.8419430   6.5327700  41.7653600  38.6850820
   6.2362120  41.1213960  37.3474570   4.2738700  37.9110280  50.6490410
   3.7435160  37.4201230  50.0213750   4.9426770  38.3394480  50.1148340
   8.6238920  40.9551340  35.0896530   9.1444580  40.2400360  34.7237680
   9.2707320  41.5937210  35.3897040  13.1716760  42.3779740  50.4131600
  13.5857780  42.5324820  51.2622020  12.2367760  42.5034960  50.5757380
  13.6438930  39.7175900  52.4170750  14.2259700  38.9628220  52.3291230
  13.8200700  40.2483340  51.6402230   4.7611000  34.8772650  50.7287700
   4.6667870  34.2593400  50.0038570   4.1808390  35.6038940  50.5017610
   7.5272440  33.4345890  47.7615090   7.0789740  33.4570150  46.9160640
   6.8937640  33.0364910  48.3585390   7.9331990  42.3300220  48.3827530
   8.3520100  43.1732950  48.2103770   7.0140620  42.4672260  48.1534310
  10.2695890  40.0616400  49.7665370  10.3892100  39.4657540  50.5060210
  11.1289890  40.0986090  49.3466670  12.6083790  40.6153590  48.3427880
  12.0819010  41.1396210  47.7393020  12.9515130  41.2480980  48.9737610
   5.0070180  38.0046960  34.7877590   4.8059240  37.1414320  35.1490930
   4.8362230  37.9180320  33.8499190   5.7839410  48.6353230  49.4985260
   5.2460500  49.3599290  49.1793960   6.0373370  48.1583570  48.7082600
   7.0364660  36.6037750  51.0241190   7.6264350  36.2953600  51.7119010
   6.2184900  36.1317500  51.1801090  11.8558090  36.2203560  51.2574210
  11.1673610  35.5585100  51.1924200  12.5764110  35.7741830  51.7022670
  12.4858490  32.8155190  37.3164470  12.7660780  31.9723090  37.6723890
  11.7124220  33.0478300  37.8303220   3.8052980  35.1047580  34.7755470
   4.1078880  35.1115010  33.8674620   4.5447570  34.7545440  35.2723130
   8.6401620  49.8704440  49.7571910   8.5660320  50.7739580  50.0644280
   7.7380460  49.5516340  49.7293980   7.0237910  34.0482200  35.7611670
   6.6759910  33.3706190  35.1814120   7.2250680  33.5871710  36.5755060
   9.1886950  49.0362950  37.3798270  10.0837740  49.3747920  37.4017030
   9.2204580  48.3142360  36.7522550   2.8283110  44.4090000  35.6085270
   3.2657980  44.9519670  36.2642850   3.3130840  43.5836950  35.6181610
   4.6390830  45.5288040  40.7207500   4.3386370  45.4053010  41.6211410
   4.5328320  44.6696630  40.3123230  16.1681300  47.5666620  50.0864470
  15.5683290  47.6259180  49.3428390  16.2975200  46.6271600  50.2161320
  17.4082750  45.3084440  35.4234180  16.5775710  45.3761090  35.8941410
  17.5854580  46.1988560  35.1201040  16.8639210  42.0531920  37.9268380
  17.6258120  42.6228570  38.0328070  16.8793580  41.4859120  38.6976690
  17.8699180  42.9082020  42.7710310  18.2408010  42.1249340  42.3646280
  18.5101110  43.5971120  42.5927610  14.8532940  44.2918600  48.1840630
  14.0392780  44.7215760  48.4466420  15.2607140  44.9037010  47.5709680
  16.9158380  42.3466290  35.0840900  17.1907220  43.2545170  34.9560120
  16.7269120  42.2828820  36.0202890  13.3133990  35.3711140  36.3794530
  13.7318870  35.1842120  35.5391190  13.0070050  34.5190190  36.6897460
  16.8123720  40.2835280  40.0770330  16.4367320  39.5163210  39.6451620
  16.0826840  40.6657980  40.5645260  16.2023340  39.4306800  49.7109850
  15.9709430  39.2019550  48.8107800  16.4627890  40.3506350  49.6654740
  14.6411410  34.6563230  52.4889550  15.5181590  34.6646630  52.8723550
  14.6532250  33.9194070  51.8781900  16.0874680  38.5092770  43.3777570
  16.6112160  38.0155420  42.7467740  16.6734100  38.6443130  44.1225140
  16.2664400  38.5932640  46.8997120  15.3167110  38.5596180  47.0142110
  16.4477410  39.5032750  46.6646890   1.7683000  32.8973650  35.0498400
   2.4911130  33.4382590  35.3679620   2.0407520  32.6237070  34.1739940
  15.5774650  37.7666120  39.3169980  16.0733770  37.5336990  40.1018860
  15.3790720  36.9277960  38.9007620  17.0061810  36.4027070  41.8507660
  16.8961090  36.2483110  42.7889930  17.7669400  35.8748010  41.6083070
  15.3527530  32.3421200  48.3090660  15.9899750  32.9555340  48.6749850
  15.5002420  32.3781860  47.3639890  17.8952080  34.2334990  35.0913800
  18.8201390  34.1016170  34.8832090  17.8727870  34.3127810  36.0450250
  17.9690570  35.0045650  37.7170510  17.1742070  34.9390770  38.2463420
  18.1733850  35.9396290  37.7055860  14.9108990  49.0437200  41.7108900
  15.5068060  48.7221770  41.0343320  15.1687140  48.5709020  42.5022170
   2.8171560  45.4755110  51.8599530   2.7741190  45.1048020  52.7413990
   2.9482570  46.4132680  52.0001350   6.5177590  47.0314700  47.4609250
   6.2768950  47.2989260  46.5739770   7.4580230  47.2020430  47.5160110
   8.7232010  33.4947390  51.2165760   8.6620900  34.0869220  51.9661170
   9.6632390  33.3873350  51.0716020  11.3606570  33.1517450  50.8558050
  11.9746980  33.4696740  50.1939130  11.9056130  32.6666040  51.4753910
  17.7781750  49.0509080  48.2619890  17.2840030  49.4477950  47.5447020
  17.1695040  48.4258290  48.6557170   1.8827830  31.8311710  50.9697110
   2.4310820  31.6499760  50.2063220   1.9483140  31.0405820  51.5053420
   2.6559590  48.4217360  48.9797310   2.0619910  48.2902060  49.7187350
   2.6483430  47.5855500  48.5139410  12.1014610  31.7149590  47.1827340
  11.2274450  32.0484700  46.9800270  11.9925360  31.2422770  48.0079210
  13.0086590  33.9220460  48.5669060  12.6799950  33.1072220  48.1870790
  13.9568890  33.8790270  48.4434750  15.4621200  49.6932500  45.5406630
  15.0024170  50.4448310  45.1664650  14.8333660  48.9738970  45.4821430
   5.8916920  48.0020740  44.7154760   6.4081940  47.3908100  44.1903020
   6.5414300  48.5049520  45.2065770   8.6312420  48.8929230  45.5423740
   8.9190230  48.6383530  44.6656750   9.1435640  48.3406590  46.1329310
   9.8489430  32.6319430  46.1220250   9.0661220  33.1064930  46.4017010
   9.5552360  31.7274260  46.0133430  14.4010500  33.3342530  44.1669340
  14.8418590  33.2787630  43.3190940  14.1318090  34.2500540  44.2379520
  16.2649070  32.9657770  42.1778160  16.2037470  32.0218990  42.0309180
  17.0441100  33.0737860  42.7231620   7.7343650  35.0506180  41.6336280
   6.9218160  34.6763070  41.2932160   8.2385290  34.2951260  41.9357470
  12.2368630  31.7148630  42.8719350  12.8398000  32.2868840  43.3467870
  11.4961620  32.2788070  42.6493250  15.3803230  32.1170190  38.1459630
  15.5753860  33.0153640  38.4127060  14.5933100  31.8857270  38.6392580
   3.5654990  33.4630960  37.1835940   4.0947750  32.6760760  37.0543890
   4.1983310  34.1422150  37.4171470   5.7592830  33.2006100  40.2381330
   5.1295570  32.4993410  40.4051460   5.2197970  33.9610230  40.0214490
   8.6984780  49.8145330  52.9091940   9.6252090  49.5789600  52.9527900
   8.6835210  50.6417330  52.4277970  16.9329840  49.3570900  39.9066190
  17.1082030  48.6708640  39.2627110  16.2351410  49.8817950  39.5142860
   5.8848390  32.4790080  52.6733820   5.6032660  32.9823680  51.9094640
   6.2668090  31.6811830  52.3075950   4.7757490  49.7465740  37.4601500
   5.5076310  49.4625020  36.9125390   5.0351160  49.5079020  38.3500880
   3.9372280  45.8630470  37.4647830   3.3081160  46.3315570  38.0133660
   4.0520110  45.0179690  37.8994020  12.4863850  31.8943660  53.2514290
  12.3729300  32.2138270  54.1465810  13.3033590  32.2956170  52.9551570
  15.2662340  49.0415190  52.7332980  16.0587660  48.5464420  52.5258940
  15.5595490  49.7205330  53.3408590  11.3922000  39.9136130  23.6149030
  11.3116050  38.9990740  23.3440740  10.9786420  40.4103200  22.9088740
   9.5240040  41.6915150  25.4958300   8.7482140  41.2115590  25.7856870
  10.1752970  41.0120800  25.3214460   3.5405870  42.0034960  26.3734060
   2.7090750  41.7483670  26.7730570   4.1486850  42.0745730  27.1091980
  13.5447470  46.0975340  24.2757430  13.0829000  45.3262580  24.6044600
  14.3573020  46.1241410  24.7809880   3.5207130  46.0375050  26.5692080
   3.8235170  45.1472790  26.3902300   4.2650720  46.5945270  26.3414330
   9.7710780  48.3833350  23.8961420   9.1522220  48.8390850  23.3255860
  10.6262560  48.5384810  23.4951120   8.9649030  44.3672340  25.5028460
   8.8957310  43.4262280  25.3417590   9.7268890  44.4573750  26.0751030
   9.9954200  37.1742720  25.7297390  10.3719020  36.3014600  25.6171060
   9.8973710  37.5101420  24.8387830   4.1259210  35.5468350  21.1914830
   4.2325960  36.4472080  21.4983590   3.2151570  35.4986320  20.9009480
  13.7778320  34.6693160  22.6625730  14.5987940  34.1789730  22.7051210
  13.8112400  35.2590820  23.4157570   5.9666940  38.5154720  25.5240010
   6.4745160  39.0135690  26.1645030   6.4980180  37.7389920  25.3479370
  18.0677870  36.6859910  29.2269360  17.3630040  37.0741620  28.7084470
  18.3335790  37.3810200  29.8290290   4.2503040  33.1553280  29.7903430
   4.2521480  33.6725670  28.9849330   3.4207350  32.6783460  29.7673360
  10.6374130  43.2672590  21.2893330  10.0191400  43.7322040  20.7256050
  11.1497380  43.9600070  21.7062840   5.5005890  42.7948460  27.9676930
   5.1675270  43.4217380  28.6098000   5.6772570  43.3210340  27.1878600
  14.0139800  36.6093540  25.4353270  13.3095370  36.8978430  26.0156380
  14.3751960  37.4193650  25.0752830   3.9318370  34.8663240  27.7973880
   4.2735180  35.7105290  27.5027750   2.9934180  35.0146980  27.9139220
   4.7124990  44.7629260  29.7826110   5.3298990  45.4380340  29.5010560
   3.8518110  45.1717240  29.6913610  15.6302580  46.2268670  27.6980750
  14.9466100  46.8967780  27.6897420  16.1696870  46.4249320  26.9325610
  17.0826720  36.0548330  25.8262480  16.1351630  36.0887310  25.9577910
  17.4076710  36.8687280  26.2111840   7.6146260  32.3545510  24.1218470
   7.9221240  31.7992400  23.4053970   6.6846960  32.4889970  23.9391460
  13.1661320  48.0712800  26.4125930  13.1788480  47.6675090  25.5448190
  12.6136540  48.8460090  26.3087360  14.4606740  44.7929020  21.5016100
  14.3503070  43.8503350  21.6265520  14.4574990  45.1544660  22.3878860
  12.5646760  42.9742640  27.7408540  12.9815550  42.7602750  26.9062000
  13.2886580  43.2315430  28.3117160  10.0027020  40.4194340  20.8578590
   9.0756300  40.3531720  21.0867060  10.1551840  41.3574470  20.7433830
   9.9896100  36.6911340  17.8545750   9.0499770  36.8525300  17.9398210
  10.3079360  37.4097020  17.3081740  16.5108860  41.3729860  27.8324780
  15.6827490  41.4422950  27.3574910  17.1059340  41.9584170  27.3640610
  14.0324310  41.9814640  21.3613840  13.4136730  41.6434190  20.7140140
  14.0148760  41.3374400  22.0693030  13.4750870  38.1599180  28.7779650
  13.0622050  38.9852890  29.0319640  12.7426820  37.5744220  28.5856010
   5.6083660  40.9459080  23.6398320   5.2040660  40.2336330  23.1444220
   5.6946780  40.6012320  24.5286360   6.0765360  44.6326640  25.8037530
   5.7793650  44.0272110  25.1245310   7.0265180  44.6703950  25.6926890
   4.3212280  37.7202290  27.4197360   4.8726870  37.8297630  26.6450610
   4.8355790  38.0939890  28.1352590  14.1650970  48.2058510  29.4660630
  13.6881530  49.0130700  29.2733240  13.4812760  47.5536840  29.6186840
   5.1683790  44.3708330  32.4545330   4.2712320  44.5948300  32.7018730
   5.1936660  44.4943270  31.5056730  12.2089010  41.2201450  18.3686590
  12.6482290  40.3823880  18.2224410  12.9217430  41.8530850  18.4550730
   3.9955010  41.2421650  31.0302700   3.8562780  42.1144450  31.3990100
   3.1136370  40.8994460  30.8850640  10.3184390  46.1597520  22.3367830
  10.7580300  46.9021850  21.9223220  10.2571280  46.4024090  23.2606790
   5.7935360  47.1843350  33.2387850   5.7650790  47.5886300  32.3716280
   5.6300330  46.2553710  33.0759450  15.7906150  32.4744260  16.6827630
  15.4778810  32.5671090  17.5826700  16.5518620  33.0525290  16.6325060
   2.3088290  39.8404060  21.1404970   2.1885890  40.5666150  20.5286240
   1.9989180  39.0706970  20.6632880  17.7450180  47.9670450  34.5352020
  18.2209900  48.4453340  35.2141100  18.3657340  47.8987940  33.8097520
  17.1483430  45.1583300  31.6952030  17.2746490  44.9195180  30.7769210
  17.1904810  44.3267840  32.1674110  11.0100170  48.8611300  30.2646840
  11.5244840  48.7719310  31.0669270  10.1669250  49.2071000  30.5574750
  12.9854570  49.1466640  19.6930840  12.8255710  48.8569580  20.5912670
  12.8201280  48.3706770  19.1576070   5.4642950  48.9265170  21.4702460
   5.2885430  48.0100710  21.2570260   4.6098690  49.2852460  21.7100260
  12.6880700  46.6554200  18.2528840  11.9945860  46.6531490  17.5931120
  13.4303560  46.2313520  17.8223010  12.2530630  48.2816910  22.3277330
  12.7087580  47.5006290  22.6415950  12.5923150  48.9923730  22.8718510
  17.0007440  37.2115760  32.6601770  16.3851710  37.7195430  32.1317230
  16.6803860  36.3114090  32.6027710   4.7751950  33.1839130  24.5228640
   4.3320100  33.9648670  24.1913160   5.3336940  33.5069020  25.2299580
   9.0621760  36.0507650  30.1263960   8.6001130  36.2590670  30.9383900
   8.6599870  35.2367000  29.8234630  14.0626270  37.2716600  31.2560620
  13.2119860  36.9722350  31.5769690  13.9028060  37.5158610  30.3444440
  11.1575980  38.7718350  33.3559410  11.4829390  37.9382100  33.0161640
  11.9456310  39.2946870  33.5037740   7.8910770  32.8049830  19.4034470
   7.2664950  32.8009700  20.1287780   7.8040890  31.9380790  19.0070440
   6.8127850  33.7286460  26.3818240   7.1100180  34.6349290  26.3010260
   7.3613410  33.2405240  25.7677810   4.5666170  38.3072700  22.2509890
   4.3407090  38.0909870  23.1556510   3.7858700  38.7401160  21.9055860
  11.7963930  38.3136070  20.8500540  11.1972820  39.0371870  20.6664160
  12.3443540  38.2512850  20.0676990   7.0065380  39.2058280  32.9170160
   6.9108980  38.2653010  32.7670560   7.8497360  39.4273350  32.5218230
  10.4028800  36.9499610  22.8803820  10.7958370  37.2671810  22.0672510
  10.7645650  36.0711490  22.9948340   8.7120970  35.7006920  34.1400680
   8.0219290  35.5079120  34.7746770   9.4553270  35.9841560  34.6724980
  10.9883940  39.5405360  26.9754600  10.2565060  40.0492170  27.3244700
  10.5908280  38.7235340  26.6743380   7.4261330  36.2159560  25.3807090
   7.4297390  35.7749510  24.5311630   8.3212450  36.5376890  25.4878910
   3.2763710  36.0986050  24.3401300   2.9363760  36.5761280  25.0968350
   2.5141030  35.6451170  23.9802400   7.4881480  37.2171640  18.3713850
   7.6094300  37.1758120  19.3199670   7.1029990  38.0795790  18.2160580
  11.4509850  34.9939040  26.3877540  11.4682590  35.4447690  27.2319390
  11.2025430  34.0944680  26.6010980   6.5002980  39.5272780  17.7697150
   5.9319880  39.0791030  17.1433060   7.2091980  39.8865560  17.2362300
  14.8780600  32.4071220  32.2263920  15.2026370  31.6760880  32.7521900
  14.9137110  32.0884860  31.3244910   7.7269300  40.2761340  27.1272500
   8.0939430  39.8019910  27.8733840   7.5374360  41.1502910  27.4680840
   5.5168670  39.3169980  29.4456710   5.2125740  40.1961960  29.6707070
   6.4715130  39.3769770  29.4814150   4.0450460  43.5230970  20.0423560
   3.2712720  42.9828590  19.8822280   4.7745090  43.0037580  19.7041320
  14.8038440  42.5196330  25.8349950  15.5237560  43.0151620  25.4446060
  14.6020260  41.8414220  25.1903820  10.2648380  33.9134290  19.9779340
   9.4512990  33.4147460  19.9024650  10.0710330  34.7532540  19.5615690
  10.1857240  42.5905390  31.7218950  10.1194550  41.6701060  31.4676540
   9.5562380  42.6880830  32.4363590  12.9796770  38.2853940  18.2741500
  13.8676390  38.5971170  18.0992840  12.9501860  37.4126190  17.8822080
   4.0887860  43.1911350  23.6802370   4.6066530  42.3879610  23.6259260
   3.6371880  43.1290490  24.5219200   8.9757360  44.4577630  18.9529670
   9.3173060  45.2019860  18.4572990   8.1470070  44.7708750  19.3154500
   4.7745520  40.6156960  33.4767620   4.4745660  40.7614140  32.5795440
   5.5456760  40.0562250  33.3841010  10.1173970  45.4125960  31.4722750
  10.1318510  44.4806920  31.2541660   9.4099070  45.4985720  32.1112520
  15.2511040  39.5965780  17.7421360  15.1674760  40.0280000  16.8917800
  15.9705230  40.0564130  18.1748180  16.3285180  42.0533300  30.8191330
  15.6033370  42.6462080  30.6220720  16.8560640  42.0456840  30.0204700
  16.2798290  46.4508040  20.4703490  15.6374450  45.7963660  20.7447210
  15.8928950  46.8563130  19.6944160  11.8584770  43.7793470  24.3175180
  12.2108590  43.1821600  23.6576550  10.9747100  43.4537700  24.4883430
   7.9448050  44.5391160  21.7245590   8.6319180  45.0860370  22.1053180
   7.1580470  45.0831890  21.7595200   7.2475260  41.5437190  21.3370950
   7.7038040  42.3542440  21.5631140   6.8963470  41.2260330  22.1689440
   9.5507870  47.0543530  28.5663250  10.1950090  47.2602910  29.2436670
   9.9137310  46.2931930  28.1134100   3.1487040  31.8874840  21.8093470
   3.0201670  31.8792740  22.7578390   2.3249060  32.2257930  21.4584480
  10.8239950  45.0575880  27.2840700  11.4662180  44.3569040  27.3972870
  11.3489300  45.8374320  27.1037590  14.6695670  45.3424500  17.0079840
  14.4433250  44.6254940  17.6004480  14.2791870  45.0936940  16.1701590
  12.5977570  45.8570780  30.4876760  12.9333810  46.4437470  31.1654680
  11.6777910  45.7263490  30.7174550  14.2511920  43.2596440  18.6694000
  13.9633620  43.7209130  19.4571880  15.0464090  42.7994210  18.9378220
   8.4266150  45.9062110  33.6564820   8.1063020  45.1871350  34.2010510
   7.7524510  46.5817180  33.7300880   6.4680320  46.7522560  18.5997970
   6.4590420  47.4852250  17.9842480   5.5478680  46.5054140  18.6924930
  11.6419750  36.1388270  29.0201620  12.0100570  35.3183480  29.3481190
  10.7817950  36.1990160  29.4357270  15.0081780  35.0945210  19.8289180
  14.3794940  35.1990880  19.1147410  14.5133700  35.3141990  20.6183060
   9.4539920  46.8150800  17.2623160   9.5551900  46.6114790  16.3325140
   8.5541660  46.5609080  17.4670940   6.9765810  37.3731160  21.2447060
   6.2681960  37.8417500  21.6860670   7.2610290  36.7153170  21.8792250
   8.6021740  38.7927860  29.2439590   9.1006990  39.2673680  29.9091440
   8.7444690  37.8691380  29.4509620  11.0081240  34.0981820  22.6842850
  10.8849020  34.1167950  21.7352360  11.9565800  34.1460760  22.8041250
   8.0958030  49.3337120  21.9570830   8.3499530  49.2958510  21.0350200
   7.1470510  49.2070450  21.9499080   5.1800830  35.6816240  18.6197770
   6.0291360  36.1186390  18.5537960   4.8132100  35.9936500  19.4469830
  15.8088600  35.0095820  30.0867980  15.3062200  35.7501220  30.4261790
  16.6245260  35.3979820  29.7704770  14.1010610  40.2529000  23.5329340
  13.1600750  40.2679230  23.7077030  14.4154680  39.4664960  23.9789640
   4.0792250  41.9348600  17.0933300   4.8455520  41.8229960  17.6558730
   4.1566940  41.2386570  16.4410070   2.7739010  39.3673670  17.7766190
   2.8542600  38.4201180  17.8883590   3.6658760  39.6980550  17.8826850
  16.1036190  47.4237850  25.2083600  16.2283610  48.2469020  25.6807410
  16.9701750  47.2128580  24.8607750   3.5753720  49.5169060  24.8800730
   4.3116200  48.9684520  25.1509300   3.9594640  50.3825070  24.7406720
   2.5812000  48.7015130  34.0686310   3.3824730  49.0227180  34.4821710
   2.0663820  48.3410710  34.7906220   6.6856030  48.6899370  16.7026300
   7.4784640  48.9788200  16.2508090   6.1660380  48.2591540  16.0238780
  11.4176630  44.8095000  34.0161720  10.8114790  44.8326600  33.2757470
  11.1130740  44.0778040  34.5528970  12.8477000  48.5375290  32.6271130
  13.7998750  48.4533310  32.5771370  12.7005220  49.2017000  33.3004920
  15.7386200  47.9169500  18.1263040  15.4527710  47.5034640  17.3117220
  15.5405750  48.8457210  18.0063560   7.2033430  43.9102780  16.5668650
   7.0984070  43.2955130  17.2930030   7.0357650  43.3868670  15.7831660
   7.3547750  42.5959580  32.5457880   6.5893420  43.1644580  32.4612550
   7.5363710  42.3035790  31.6526110  10.4436160  42.9722810  17.1710640
   9.8946260  43.4192110  17.8153380  11.0655420  42.4672060  17.6948310
  14.4971100  44.3264910  33.1032900  15.2380570  44.6640670  32.6000360
  13.7343780  44.4956970  32.5502670   2.3332890  39.3318180  33.9072430
   2.3738230  39.0332050  34.8157660   3.1878390  39.7325790  33.7479950
   6.1111280  41.9313730  19.0675940   6.5327700  41.7653600  19.9107330
   6.2362120  41.1213960  18.5731080   4.2738700  37.9110280  31.8746920
   3.7435160  37.4201230  31.2470260   4.9426770  38.3394480  31.3404850
   8.6238920  40.9551340  16.3153040   9.1444580  40.2400360  15.9494190
   9.2707320  41.5937210  16.6153550  13.1716760  42.3779740  31.6388110
  13.5857780  42.5324820  32.4878530  12.2367760  42.5034960  31.8013890
  13.6438930  39.7175900  33.6427260  14.2259700  38.9628220  33.5547740
  13.8200700  40.2483340  32.8658740   4.7611000  34.8772650  31.9544210
   4.6667870  34.2593400  31.2295080   4.1808390  35.6038940  31.7274120
   7.5272440  33.4345890  28.9871600   7.0789740  33.4570150  28.1417150
   6.8937640  33.0364910  29.5841900   7.9331990  42.3300220  29.6084040
   8.3520100  43.1732950  29.4360280   7.0140620  42.4672260  29.3790820
  10.2695890  40.0616400  30.9921880  10.3892100  39.4657540  31.7316720
  11.1289890  40.0986090  30.5723180  12.6083790  40.6153590  29.5684390
  12.0819010  41.1396210  28.9649530  12.9515130  41.2480980  30.1994120
   5.0070180  38.0046960  16.0134100   4.8059240  37.1414320  16.3747440
   4.8362230  37.9180320  15.0755700   5.7839410  48.6353230  30.7241770
   5.2460500  49.3599290  30.4050470   6.0373370  48.1583570  29.9339110
   7.0364660  36.6037750  32.2497700   7.6264350  36.2953600  32.9375520
   6.2184900  36.1317500  32.4057600  11.8558090  36.2203560  32.4830720
  11.1673610  35.5585100  32.4180710  12.5764110  35.7741830  32.9279180
  12.4858490  32.8155190  18.5420980  12.7660780  31.9723090  18.8980400
  11.7124220  33.0478300  19.0559730   3.8052980  35.1047580  16.0011980
   4.1078880  35.1115010  15.0931130   4.5447570  34.7545440  16.4979640
   8.6401620  49.8704440  30.9828420   8.5660320  50.7739580  31.2900790
   7.7380460  49.5516340  30.9550490   7.0237910  34.0482200  16.9868180
   6.6759910  33.3706190  16.4070630   7.2250680  33.5871710  17.8011570
   9.1886950  49.0362950  18.6054780  10.0837740  49.3747920  18.6273540
   9.2204580  48.3142360  17.9779060   2.8283110  44.4090000  16.8341780
   3.2657980  44.9519670  17.4899360   3.3130840  43.5836950  16.8438120
   4.6390830  45.5288040  21.9464010   4.3386370  45.4053010  22.8467920
   4.5328320  44.6696630  21.5379740  16.1681300  47.5666620  31.3120980
  15.5683290  47.6259180  30.5684900  16.2975200  46.6271600  31.4417830
  17.4082750  45.3084440  16.6490690  16.5775710  45.3761090  17.1197920
  17.5854580  46.1988560  16.3457550  16.8639210  42.0531920  19.1524890
  17.6258120  42.6228570  19.2584580  16.8793580  41.4859120  19.9233200
  17.8699180  42.9082020  23.9966820  18.2408010  42.1249340  23.5902790
  18.5101110  43.5971120  23.8184120  14.8532940  44.2918600  29.4097140
  14.0392780  44.7215760  29.6722930  15.2607140  44.9037010  28.7966190
  16.9158380  42.3466290  16.3097410  17.1907220  43.2545170  16.1816630
  16.7269120  42.2828820  17.2459400  13.3133990  35.3711140  17.6051040
  13.7318870  35.1842120  16.7647700  13.0070050  34.5190190  17.9153970
  16.8123720  40.2835280  21.3026840  16.4367320  39.5163210  20.8708130
  16.0826840  40.6657980  21.7901770  16.2023340  39.4306800  30.9366360
  15.9709430  39.2019550  30.0364310  16.4627890  40.3506350  30.8911250
  14.6411410  34.6563230  33.7146060  15.5181590  34.6646630  34.0980060
  14.6532250  33.9194070  33.1038410  16.0874680  38.5092770  24.6034080
  16.6112160  38.0155420  23.9724250  16.6734100  38.6443130  25.3481650
  16.2664400  38.5932640  28.1253630  15.3167110  38.5596180  28.2398620
  16.4477410  39.5032750  27.8903400   1.7683000  32.8973650  16.2754910
   2.4911130  33.4382590  16.5936130   2.0407520  32.6237070  15.3996450
  15.5774650  37.7666120  20.5426490  16.0733770  37.5336990  21.3275370
  15.3790720  36.9277960  20.1264130  17.0061810  36.4027070  23.0764170
  16.8961090  36.2483110  24.0146440  17.7669400  35.8748010  22.8339580
  15.3527530  32.3421200  29.5347170  15.9899750  32.9555340  29.9006360
  15.5002420  32.3781860  28.5896400  17.8952080  34.2334990  16.3170310
  18.8201390  34.1016170  16.1088600  17.8727870  34.3127810  17.2706760
  17.9690570  35.0045650  18.9427020  17.1742070  34.9390770  19.4719930
  18.1733850  35.9396290  18.9312370  14.9108990  49.0437200  22.9365410
  15.5068060  48.7221770  22.2599830  15.1687140  48.5709020  23.7278680
   2.8171560  45.4755110  33.0856040   2.7741190  45.1048020  33.9670500
   2.9482570  46.4132680  33.2257860   6.5177590  47.0314700  28.6865760
   6.2768950  47.2989260  27.7996280   7.4580230  47.2020430  28.7416620
   8.7232010  33.4947390  32.4422270   8.6620900  34.0869220  33.1917680
   9.6632390  33.3873350  32.2972530  11.3606570  33.1517450  32.0814560
  11.9746980  33.4696740  31.4195640  11.9056130  32.6666040  32.7010420
  17.7781750  49.0509080  29.4876400  17.2840030  49.4477950  28.7703530
  17.1695040  48.4258290  29.8813680   1.8827830  31.8311710  32.1953620
   2.4310820  31.6499760  31.4319730   1.9483140  31.0405820  32.7309930
   2.6559590  48.4217360  30.2053820   2.0619910  48.2902060  30.9443860
   2.6483430  47.5855500  29.7395920  12.1014610  31.7149590  28.4083850
  11.2274450  32.0484700  28.2056780  11.9925360  31.2422770  29.2335720
  13.0086590  33.9220460  29.7925570  12.6799950  33.1072220  29.4127300
  13.9568890  33.8790270  29.6691260  15.4621200  49.6932500  26.7663140
  15.0024170  50.4448310  26.3921160  14.8333660  48.9738970  26.7077940
   5.8916920  48.0020740  25.9411270   6.4081940  47.3908100  25.4159530
   6.5414300  48.5049520  26.4322280   8.6312420  48.8929230  26.7680250
   8.9190230  48.6383530  25.8913260   9.1435640  48.3406590  27.3585820
   9.8489430  32.6319430  27.3476760   9.0661220  33.1064930  27.6273520
   9.5552360  31.7274260  27.2389940  14.4010500  33.3342530  25.3925850
  14.8418590  33.2787630  24.5447450  14.1318090  34.2500540  25.4636030
  16.2649070  32.9657770  23.4034670  16.2037470  32.0218990  23.2565690
  17.0441100  33.0737860  23.9488130   7.7343650  35.0506180  22.8592790
   6.9218160  34.6763070  22.5188670   8.2385290  34.2951260  23.1613980
  12.2368630  31.7148630  24.0975860  12.8398000  32.2868840  24.5724380
  11.4961620  32.2788070  23.8749760  15.3803230  32.1170190  19.3716140
  15.5753860  33.0153640  19.6383570  14.5933100  31.8857270  19.8649090
   3.5654990  33.4630960  18.4092450   4.0947750  32.6760760  18.2800400
   4.1983310  34.1422150  18.6427980   5.7592830  33.2006100  21.4637840
   5.1295570  32.4993410  21.6307970   5.2197970  33.9610230  21.2471000
   8.6984780  49.8145330  34.1348450   9.6252090  49.5789600  34.1784410
   8.6835210  50.6417330  33.6534480  16.9329840  49.3570900  21.1322700
  17.1082030  48.6708640  20.4883620  16.2351410  49.8817950  20.7399370
   5.8848390  32.4790080  33.8990330   5.6032660  32.9823680  33.1351150
   6.2668090  31.6811830  33.5332460   4.7757490  49.7465740  18.6858010
   5.5076310  49.4625020  18.1381900   5.0351160  49.5079020  19.5757390
   3.9372280  45.8630470  18.6904340   3.3081160  46.3315570  19.2390170
   4.0520110  45.0179690  19.1250530  12.4863850  31.8943660  34.4770800
  12.3729300  32.2138270  35.3722320  13.3033590  32.2956170  34.1808080
  15.2662340  49.0415190  33.9589490  16.0587660  48.5464420  33.7515450
  15.5595490  49.7205330  34.5665100  11.3922000  39.9136130   4.8405540
  11.3116050  38.9990740   4.5697250  10.9786420  40.4103200   4.1345250
   9.5240040  41.6915150   6.7214810   8.7482140  41.2115590   7.0113380
  10.1752970  41.0120800   6.5470970   3.5405870  42.0034960   7.5990570
   2.7090750  41.7483670   7.9987080   4.1486850  42.0745730   8.3348490
  13.5447470  46.0975340   5.5013940  13.0829000  45.3262580   5.8301110
  14.3573020  46.1241410   6.0066390   3.5207130  46.0375050   7.7948590
   3.8235170  45.1472790   7.6158810   4.2650720  46.5945270   7.5670840
   9.7710780  48.3833350   5.1217930   9.1522220  48.8390850   4.5512370
  10.6262560  48.5384810   4.7207630   8.9649030  44.3672340   6.7284970
   8.8957310  43.4262280   6.5674100   9.7268890  44.4573750   7.3007540
   9.9954200  37.1742720   6.9553900  10.3719020  36.3014600   6.8427570
   9.8973710  37.5101420   6.0644340   4.1259210  35.5468350   2.4171340
   4.2325960  36.4472080   2.7240100   3.2151570  35.4986320   2.1265990
  13.7778320  34.6693160   3.8882240  14.5987940  34.1789730   3.9307720
  13.8112400  35.2590820   4.6414080   5.9666940  38.5154720   6.7496520
   6.4745160  39.0135690   7.3901540   6.4980180  37.7389920   6.5735880
  18.0677870  36.6859910  10.4525870  17.3630040  37.0741620   9.9340980
  18.3335790  37.3810200  11.0546800   4.2503040  33.1553280  11.0159940
   4.2521480  33.6725670  10.2105840   3.4207350  32.6783460  10.9929870
  10.6374130  43.2672590   2.5149840  10.0191400  43.7322040   1.9512560
  11.1497380  43.9600070   2.9319350   5.5005890  42.7948460   9.1933440
   5.1675270  43.4217380   9.8354510   5.6772570  43.3210340   8.4135110
  14.0139800  36.6093540   6.6609780  13.3095370  36.8978430   7.2412890
  14.3751960  37.4193650   6.3009340   3.9318370  34.8663240   9.0230390
   4.2735180  35.7105290   8.7284260   2.9934180  35.0146980   9.1395730
   4.7124990  44.7629260  11.0082620   5.3298990  45.4380340  10.7267070
   3.8518110  45.1717240  10.9170120  15.6302580  46.2268670   8.9237260
  14.9466100  46.8967780   8.9153930  16.1696870  46.4249320   8.1582120
  17.0826720  36.0548330   7.0518990  16.1351630  36.0887310   7.1834420
  17.4076710  36.8687280   7.4368350   7.6146260  32.3545510   5.3474980
   7.9221240  31.7992400   4.6310480   6.6846960  32.4889970   5.1647970
  13.1661320  48.0712800   7.6382440  13.1788480  47.6675090   6.7704700
  12.6136540  48.8460090   7.5343870  14.4606740  44.7929020   2.7272610
  14.3503070  43.8503350   2.8522030  14.4574990  45.1544660   3.6135370
  12.5646760  42.9742640   8.9665050  12.9815550  42.7602750   8.1318510
  13.2886580  43.2315430   9.5373670  10.0027020  40.4194340   2.0835100
   9.0756300  40.3531720   2.3123570  10.1551840  41.3574470   1.9690340
  16.5108860  41.3729860   9.0581290  15.6827490  41.4422950   8.5831420
  17.1059340  41.9584170   8.5897120  14.0324310  41.9814640   2.5870350
  13.4136730  41.6434190   1.9396650  14.0148760  41.3374400   3.2949540
  13.4750870  38.1599180  10.0036160  13.0622050  38.9852890  10.2576150
  12.7426820  37.5744220   9.8112520   5.6083660  40.9459080   4.8654830
   5.2040660  40.2336330   4.3700730   5.6946780  40.6012320   5.7542870
   6.0765360  44.6326640   7.0294040   5.7793650  44.0272110   6.3501820
   7.0265180  44.6703950   6.9183400   4.3212280  37.7202290   8.6453870
   4.8726870  37.8297630   7.8707120   4.8355790  38.0939890   9.3609100
  14.1650970  48.2058510  10.6917140  13.6881530  49.0130700  10.4989750
  13.4812760  47.5536840  10.8443350   5.1683790  44.3708330  13.6801840
   4.2712320  44.5948300  13.9275240   5.1936660  44.4943270  12.7313240
   3.9955010  41.2421650  12.2559210   3.8562780  42.1144450  12.6246610
   3.1136370  40.8994460  12.1107150  10.3184390  46.1597520   3.5624340
  10.7580300  46.9021850   3.1479730  10.2571280  46.4024090   4.4863300
   5.7935360  47.1843350  14.4644360   5.7650790  47.5886300  13.5972790
   5.6300330  46.2553710  14.3015960   2.3088290  39.8404060   2.3661480
   2.1885890  40.5666150   1.7542750   1.9989180  39.0706970   1.8889390
  17.7450180  47.9670450  15.7608530  18.2209900  48.4453340  16.4397610
  18.3657340  47.8987940  15.0354030  17.1483430  45.1583300  12.9208540
  17.2746490  44.9195180  12.0025720  17.1904810  44.3267840  13.3930620
  11.0100170  48.8611300  11.4903350  11.5244840  48.7719310  12.2925780
  10.1669250  49.2071000  11.7831260   5.4642950  48.9265170   2.6958970
   5.2885430  48.0100710   2.4826770   4.6098690  49.2852460   2.9356770
  12.2530630  48.2816910   3.5533840  12.7087580  47.5006290   3.8672460
  12.5923150  48.9923730   4.0975020  17.0007440  37.2115760  13.8858280
  16.3851710  37.7195430  13.3573740  16.6803860  36.3114090  13.8284220
   4.7751950  33.1839130   5.7485150   4.3320100  33.9648670   5.4169670
   5.3336940  33.5069020   6.4556090   9.0621760  36.0507650  11.3520470
   8.6001130  36.2590670  12.1640410   8.6599870  35.2367000  11.0491140
  14.0626270  37.2716600  12.4817130  13.2119860  36.9722350  12.8026200
  13.9028060  37.5158610  11.5700950  11.1575980  38.7718350  14.5815920
  11.4829390  37.9382100  14.2418150  11.9456310  39.2946870  14.7294250
   6.8127850  33.7286460   7.6074750   7.1100180  34.6349290   7.5266770
   7.3613410  33.2405240   6.9934320   4.5666170  38.3072700   3.4766400
   4.3407090  38.0909870   4.3813020   3.7858700  38.7401160   3.1312370
   7.0065380  39.2058280  14.1426670   6.9108980  38.2653010  13.9927070
   7.8497360  39.4273350  13.7474740  10.4028800  36.9499610   4.1060330
  10.7958370  37.2671810   3.2929020  10.7645650  36.0711490   4.2204850
   8.7120970  35.7006920  15.3657190   8.0219290  35.5079120  16.0003280
   9.4553270  35.9841560  15.8981490  10.9883940  39.5405360   8.2011110
  10.2565060  40.0492170   8.5501210  10.5908280  38.7235340   7.8999890
   7.4261330  36.2159560   6.6063600   7.4297390  35.7749510   5.7568140
   8.3212450  36.5376890   6.7135420   3.2763710  36.0986050   5.5657810
   2.9363760  36.5761280   6.3224860   2.5141030  35.6451170   5.2058910
  11.4509850  34.9939040   7.6134050  11.4682590  35.4447690   8.4575900
  11.2025430  34.0944680   7.8267490  14.8780600  32.4071220  13.4520430
  15.2026370  31.6760880  13.9778410  14.9137110  32.0884860  12.5501420
   7.7269300  40.2761340   8.3529010   8.0939430  39.8019910   9.0990350
   7.5374360  41.1502910   8.6937350   5.5168670  39.3169980  10.6713220
   5.2125740  40.1961960  10.8963580   6.4715130  39.3769770  10.7070660
  14.8038440  42.5196330   7.0606460  15.5237560  43.0151620   6.6702570
  14.6020260  41.8414220   6.4160330  10.1857240  42.5905390  12.9475460
  10.1194550  41.6701060  12.6933050   9.5562380  42.6880830  13.6620100
   4.0887860  43.1911350   4.9058880   4.6066530  42.3879610   4.8515770
   3.6371880  43.1290490   5.7475710   4.7745520  40.6156960  14.7024130
   4.4745660  40.7614140  13.8051950   5.5456760  40.0562250  14.6097520
  10.1173970  45.4125960  12.6979260  10.1318510  44.4806920  12.4798170
   9.4099070  45.4985720  13.3369030  16.3285180  42.0533300  12.0447840
  15.6033370  42.6462080  11.8477230  16.8560640  42.0456840  11.2461210
  11.8584770  43.7793470   5.5431690  12.2108590  43.1821600   4.8833060
  10.9747100  43.4537700   5.7139940   7.9448050  44.5391160   2.9502100
   8.6319180  45.0860370   3.3309690   7.1580470  45.0831890   2.9851710
   7.2475260  41.5437190   2.5627460   7.7038040  42.3542440   2.7887650
   6.8963470  41.2260330   3.3945950   9.5507870  47.0543530   9.7919760
  10.1950090  47.2602910  10.4693180   9.9137310  46.2931930   9.3390610
   3.1487040  31.8874840   3.0349980   3.0201670  31.8792740   3.9834900
   2.3249060  32.2257930   2.6840990  10.8239950  45.0575880   8.5097210
  11.4662180  44.3569040   8.6229380  11.3489300  45.8374320   8.3294100
  12.5977570  45.8570780  11.7133270  12.9333810  46.4437470  12.3911190
  11.6777910  45.7263490  11.9431060   8.4266150  45.9062110  14.8821330
   8.1063020  45.1871350  15.4267020   7.7524510  46.5817180  14.9557390
  11.6419750  36.1388270  10.2458130  12.0100570  35.3183480  10.5737700
  10.7817950  36.1990160  10.6613780   6.9765810  37.3731160   2.4703570
   6.2681960  37.8417500   2.9117180   7.2610290  36.7153170   3.1048760
   8.6021740  38.7927860  10.4696100   9.1006990  39.2673680  11.1347950
   8.7444690  37.8691380  10.6766130  11.0081240  34.0981820   3.9099360
  10.8849020  34.1167950   2.9608870  11.9565800  34.1460760   4.0297760
   8.0958030  49.3337120   3.1827340   8.3499530  49.2958510   2.2606710
   7.1470510  49.2070450   3.1755590  15.8088600  35.0095820  11.3124490
  15.3062200  35.7501220  11.6518300  16.6245260  35.3979820  10.9961280
  14.1010610  40.2529000   4.7585850  13.1600750  40.2679230   4.9333540
  14.4154680  39.4664960   5.2046150  16.1036190  47.4237850   6.4340110
  16.2283610  48.2469020   6.9063920  16.9701750  47.2128580   6.0864260
   3.5753720  49.5169060   6.1057240   4.3116200  48.9684520   6.3765810
   3.9594640  50.3825070   5.9663230   2.5812000  48.7015130  15.2942820
   3.3824730  49.0227180  15.7078220   2.0663820  48.3410710  16.0162730
  11.4176630  44.8095000  15.2418230  10.8114790  44.8326600  14.5013980
  11.1130740  44.0778040  15.7785480  12.8477000  48.5375290  13.8527640
  13.7998750  48.4533310  13.8027880  12.7005220  49.2017000  14.5261430
   7.3547750  42.5959580  13.7714390   6.5893420  43.1644580  13.6869060
   7.5363710  42.3035790  12.8782620  14.4971100  44.3264910  14.3289410
  15.2380570  44.6640670  13.8256870  13.7343780  44.4956970  13.7759180
   2.3332890  39.3318180  15.1328940   2.3738230  39.0332050  16.0414170
   3.1878390  39.7325790  14.9736460   4.2738700  37.9110280  13.1003430
   3.7435160  37.4201230  12.4726770   4.9426770  38.3394480  12.5661360
  13.1716760  42.3779740  12.8644620  13.5857780  42.5324820  13.7135040
  12.2367760  42.5034960  13.0270400  13.6438930  39.7175900  14.8683770
  14.2259700  38.9628220  14.7804250  13.8200700  40.2483340  14.0915250
   4.7611000  34.8772650  13.1800720   4.6667870  34.2593400  12.4551590
   4.1808390  35.6038940  12.9530630   7.5272440  33.4345890  10.2128110
   7.0789740  33.4570150   9.3673660   6.8937640  33.0364910  10.8098410
   7.9331990  42.3300220  10.8340550   8.3520100  43.1732950  10.6616790
   7.0140620  42.4672260  10.6047330  10.2695890  40.0616400  12.2178390
  10.3892100  39.4657540  12.9573230  11.1289890  40.0986090  11.7979690
  12.6083790  40.6153590  10.7940900  12.0819010  41.1396210  10.1906040
  12.9515130  41.2480980  11.4250630   5.7839410  48.6353230  11.9498280
   5.2460500  49.3599290  11.6306980   6.0373370  48.1583570  11.1595620
   7.0364660  36.6037750  13.4754210   7.6264350  36.2953600  14.1632030
   6.2184900  36.1317500  13.6314110  11.8558090  36.2203560  13.7087230
  11.1673610  35.5585100  13.6437220  12.5764110  35.7741830  14.1535690
   8.6401620  49.8704440  12.2084930   8.5660320  50.7739580  12.5157300
   7.7380460  49.5516340  12.1807000   4.6390830  45.5288040   3.1720520
   4.3386370  45.4053010   4.0724430   4.5328320  44.6696630   2.7636250
  16.1681300  47.5666620  12.5377490  15.5683290  47.6259180  11.7941410
  16.2975200  46.6271600  12.6674340  17.8699180  42.9082020   5.2223330
  18.2408010  42.1249340   4.8159300  18.5101110  43.5971120   5.0440630
  14.8532940  44.2918600  10.6353650  14.0392780  44.7215760  10.8979440
  15.2607140  44.9037010  10.0222700  16.8123720  40.2835280   2.5283350
  16.4367320  39.5163210   2.0964640  16.0826840  40.6657980   3.0158280
  16.2023340  39.4306800  12.1622870  15.9709430  39.2019550  11.2620820
  16.4627890  40.3506350  12.1167760  14.6411410  34.6563230  14.9402570
  15.5181590  34.6646630  15.3236570  14.6532250  33.9194070  14.3294920
  16.0874680  38.5092770   5.8290590  16.6112160  38.0155420   5.1980760
  16.6734100  38.6443130   6.5738160  16.2664400  38.5932640   9.3510140
  15.3167110  38.5596180   9.4655130  16.4477410  39.5032750   9.1159910
  15.5774650  37.7666120   1.7683000  16.0733770  37.5336990   2.5531880
  15.3790720  36.9277960   1.3520640  17.0061810  36.4027070   4.3020680
  16.8961090  36.2483110   5.2402950  17.7669400  35.8748010   4.0596090
  15.3527530  32.3421200  10.7603680  15.9899750  32.9555340  11.1262870
  15.5002420  32.3781860   9.8152910  14.9108990  49.0437200   4.1621920
  15.5068060  48.7221770   3.4856340  15.1687140  48.5709020   4.9535190
   2.8171560  45.4755110  14.3112550   2.7741190  45.1048020  15.1927010
   2.9482570  46.4132680  14.4514370   6.5177590  47.0314700   9.9122270
   6.2768950  47.2989260   9.0252790   7.4580230  47.2020430   9.9673130
   8.7232010  33.4947390  13.6678780   8.6620900  34.0869220  14.4174190
   9.6632390  33.3873350  13.5229040  11.3606570  33.1517450  13.3071070
  11.9746980  33.4696740  12.6452150  11.9056130  32.6666040  13.9266930
  17.7781750  49.0509080  10.7132910  17.2840030  49.4477950   9.9960040
  17.1695040  48.4258290  11.1070190   1.8827830  31.8311710  13.4210130
   2.4310820  31.6499760  12.6576240   1.9483140  31.0405820  13.9566440
   2.6559590  48.4217360  11.4310330   2.0619910  48.2902060  12.1700370
   2.6483430  47.5855500  10.9652430  12.1014610  31.7149590   9.6340360
  11.2274450  32.0484700   9.4313290  11.9925360  31.2422770  10.4592230
  13.0086590  33.9220460  11.0182080  12.6799950  33.1072220  10.6383810
  13.9568890  33.8790270  10.8947770  15.4621200  49.6932500   7.9919650
  15.0024170  50.4448310   7.6177670  14.8333660  48.9738970   7.9334450
   5.8916920  48.0020740   7.1667780   6.4081940  47.3908100   6.6416040
   6.5414300  48.5049520   7.6578790   8.6312420  48.8929230   7.9936760
   8.9190230  48.6383530   7.1169770   9.1435640  48.3406590   8.5842330
   9.8489430  32.6319430   8.5733270   9.0661220  33.1064930   8.8530030
   9.5552360  31.7274260   8.4646450  14.4010500  33.3342530   6.6182360
  14.8418590  33.2787630   5.7703960  14.1318090  34.2500540   6.6892540
  16.2649070  32.9657770   4.6291180  16.2037470  32.0218990   4.4822200
  17.0441100  33.0737860   5.1744640   7.7343650  35.0506180   4.0849300
   6.9218160  34.6763070   3.7445180   8.2385290  34.2951260   4.3870490
  12.2368630  31.7148630   5.3232370  12.8398000  32.2868840   5.7980890
  11.4961620  32.2788070   5.1006270   5.7592830  33.2006100   2.6894350
   5.1295570  32.4993410   2.8564480   5.2197970  33.9610230   2.4727510
   8.6984780  49.8145330  15.3604960   9.6252090  49.5789600  15.4040920
   8.6835210  50.6417330  14.8790990  16.9329840  49.3570900   2.3579210
  17.1082030  48.6708640   1.7140130  16.2351410  49.8817950   1.9655880
   5.8848390  32.4790080  15.1246840   5.6032660  32.9823680  14.3607660
   6.2668090  31.6811830  14.7588970  12.4863850  31.8943660  15.7027310
  12.3729300  32.2138270  16.5978830  13.3033590  32.2956170  15.4064590
  15.2662340  49.0415190  15.1846000  16.0587660  48.5464420  14.9771960
  15.5595490  49.7205330  15.7921610  11.3922000  21.1392640  61.1636010
  11.3116050  20.2247250  60.8927720  10.9786420  21.6359710  60.4575720
   9.5240040  22.9171660  63.0445280   8.7482140  22.4372100  63.3343850
  10.1752970  22.2377310  62.8701440   3.5405870  23.2291470  63.9221040
   2.7090750  22.9740180  64.3217550   4.1486850  23.3002240  64.6578960
  13.5447470  27.3231850  61.8244410  13.0829000  26.5519090  62.1531580
  14.3573020  27.3497920  62.3296860   3.5207130  27.2631560  64.1179060
   3.8235170  26.3729300  63.9389280   4.2650720  27.8201780  63.8901310
   9.7710780  29.6089860  61.4448400   9.1522220  30.0647360  60.8742840
  10.6262560  29.7641320  61.0438100   8.9649030  25.5928850  63.0515440
   8.8957310  24.6518790  62.8904570   9.7268890  25.6830260  63.6238010
   9.9954200  18.3999230  63.2784370  10.3719020  17.5271110  63.1658040
   9.8973710  18.7357930  62.3874810   4.1259210  16.7724860  58.7401810
   4.2325960  17.6728590  59.0470570   3.2151570  16.7242830  58.4496460
  13.7778320  15.8949670  60.2112710  14.5987940  15.4046240  60.2538190
  13.8112400  16.4847330  60.9644550   5.9666940  19.7411230  63.0726990
   6.4745160  20.2392200  63.7132010   6.4980180  18.9646430  62.8966350
  18.0677870  17.9116420  66.7756340  17.3630040  18.2998130  66.2571450
  18.3335790  18.6066710  67.3777270   4.2503040  14.3809790  67.3390410
   4.2521480  14.8982180  66.5336310   3.4207350  13.9039970  67.3160340
  10.6374130  24.4929100  58.8380310  10.0191400  24.9578550  58.2743030
  11.1497380  25.1856580  59.2549820   5.5005890  24.0204970  65.5163910
   5.1675270  24.6473890  66.1584980   5.6772570  24.5466850  64.7365580
  14.0139800  17.8350050  62.9840250  13.3095370  18.1234940  63.5643360
  14.3751960  18.6450160  62.6239810   3.9318370  16.0919750  65.3460860
   4.2735180  16.9361800  65.0514730   2.9934180  16.2403490  65.4626200
   4.7124990  25.9885770  67.3313090   5.3298990  26.6636850  67.0497540
   3.8518110  26.3973750  67.2400590  15.6302580  27.4525180  65.2467730
  14.9466100  28.1224290  65.2384400  16.1696870  27.6505830  64.4812590
  17.0826720  17.2804840  63.3749460  16.1351630  17.3143820  63.5064890
  17.4076710  18.0943790  63.7598820   7.6146260  13.5802020  61.6705450
   7.9221240  13.0248910  60.9540950   6.6846960  13.7146480  61.4878440
  13.1661320  29.2969310  63.9612910  13.1788480  28.8931600  63.0935170
  12.6136540  30.0716600  63.8574340  14.4606740  26.0185530  59.0503080
  14.3503070  25.0759860  59.1752500  14.4574990  26.3801170  59.9365840
  12.5646760  24.1999150  65.2895520  12.9815550  23.9859260  64.4548980
  13.2886580  24.4571940  65.8604140  10.0027020  21.6450850  58.4065570
   9.0756300  21.5788230  58.6354040  10.1551840  22.5830980  58.2920810
   9.9896100  17.9167850  55.4032730   9.0499770  18.0781810  55.4885190
  10.3079360  18.6353530  54.8568720  16.5108860  22.5986370  65.3811760
  15.6827490  22.6679460  64.9061890  17.1059340  23.1840680  64.9127590
  14.0324310  23.2071150  58.9100820  13.4136730  22.8690700  58.2627120
  14.0148760  22.5630910  59.6180010  13.4750870  19.3855690  66.3266630
  13.0622050  20.2109400  66.5806620  12.7426820  18.8000730  66.1342990
   5.6083660  22.1715590  61.1885300   5.2040660  21.4592840  60.6931200
   5.6946780  21.8268830  62.0773340   6.0765360  25.8583150  63.3524510
   5.7793650  25.2528620  62.6732290   7.0265180  25.8960460  63.2413870
   4.3212280  18.9458800  64.9684340   4.8726870  19.0554140  64.1937590
   4.8355790  19.3196400  65.6839570  14.1650970  29.4315020  67.0147610
  13.6881530  30.2387210  66.8220220  13.4812760  28.7793350  67.1673820
  12.2089010  22.4457960  55.9173570  12.6482290  21.6080390  55.7711390
  12.9217430  23.0787360  56.0037710  10.3184390  27.3854030  59.8854810
  10.7580300  28.1278360  59.4710200  10.2571280  27.6280600  60.8093770
  15.7906150  13.7000770  54.2314610  15.4778810  13.7927600  55.1313680
  16.5518620  14.2781800  54.1812040   2.3088290  21.0660570  58.6891950
   2.1885890  21.7922660  58.0773220   1.9989180  20.2963480  58.2119860
  12.9854570  30.3723150  57.2417820  12.8255710  30.0826090  58.1399650
  12.8201280  29.5963280  56.7063050   5.4642950  30.1521680  59.0189440
   5.2885430  29.2357220  58.8057240   4.6098690  30.5108970  59.2587240
  12.6880700  27.8810710  55.8015820  11.9945860  27.8788000  55.1418100
  13.4303560  27.4570030  55.3709990  12.2530630  29.5073420  59.8764310
  12.7087580  28.7262800  60.1902930  12.5923150  30.2180240  60.4205490
   4.7751950  14.4095640  62.0715620   4.3320100  15.1905180  61.7400140
   5.3336940  14.7325530  62.7786560   7.8910770  14.0306340  56.9521450
   7.2664950  14.0266210  57.6774760   7.8040890  13.1637300  56.5557420
   6.8127850  14.9542970  63.9305220   7.1100180  15.8605800  63.8497240
   7.3613410  14.4661750  63.3164790   4.5666170  19.5329210  59.7996870
   4.3407090  19.3166380  60.7043490   3.7858700  19.9657670  59.4542840
  11.7963930  19.5392580  58.3987520  11.1972820  20.2628380  58.2151140
  12.3443540  19.4769360  57.6163970  10.4028800  18.1756120  60.4290800
  10.7958370  18.4928320  59.6159490  10.7645650  17.2968000  60.5435320
  10.9883940  20.7661870  64.5241580  10.2565060  21.2748680  64.8731680
  10.5908280  19.9491850  64.2230360   7.4261330  17.4416070  62.9294070
   7.4297390  17.0006020  62.0798610   8.3212450  17.7633400  63.0365890
   3.2763710  17.3242560  61.8888280   2.9363760  17.8017790  62.6455330
   2.5141030  16.8707680  61.5289380   7.4881480  18.4428150  55.9200830
   7.6094300  18.4014630  56.8686650   7.1029990  19.3052300  55.7647560
  11.4509850  16.2195550  63.9364520  11.4682590  16.6704200  64.7806370
  11.2025430  15.3201190  64.1497960   6.5002980  20.7529290  55.3184130
   5.9319880  20.3047540  54.6920040   7.2091980  21.1122070  54.7849280
   7.7269300  21.5017850  64.6759480   8.0939430  21.0276420  65.4220820
   7.5374360  22.3759420  65.0167820   5.5168670  20.5426490  66.9943690
   5.2125740  21.4218470  67.2194050   6.4715130  20.6026280  67.0301130
   4.0450460  24.7487480  57.5910540   3.2712720  24.2085100  57.4309260
   4.7745090  24.2294090  57.2528300  14.8038440  23.7452840  63.3836930
  15.5237560  24.2408130  62.9933040  14.6020260  23.0670730  62.7390800
  10.2648380  15.1390800  57.5266320   9.4512990  14.6403970  57.4511630
  10.0710330  15.9789050  57.1102670  12.9796770  19.5110450  55.8228480
  13.8676390  19.8227680  55.6479820  12.9501860  18.6382700  55.4309060
   4.0887860  24.4167860  61.2289350   4.6066530  23.6136120  61.1746240
   3.6371880  24.3547000  62.0706180   8.9757360  25.6834140  56.5016650
   9.3173060  26.4276370  56.0059970   8.1470070  25.9965260  56.8641480
  15.2511040  20.8222290  55.2908340  15.1674760  21.2536510  54.4404780
  15.9705230  21.2820640  55.7235160  16.2798290  27.6764550  58.0190470
  15.6374450  27.0220170  58.2934190  15.8928950  28.0819640  57.2431140
  11.8584770  25.0049980  61.8662160  12.2108590  24.4078110  61.2063530
  10.9747100  24.6794210  62.0370410   7.9448050  25.7647670  59.2732570
   8.6319180  26.3116880  59.6540160   7.1580470  26.3088400  59.3082180
   7.2475260  22.7693700  58.8857930   7.7038040  23.5798950  59.1118120
   6.8963470  22.4516840  59.7176420   9.5507870  28.2800040  66.1150230
  10.1950090  28.4859420  66.7923650   9.9137310  27.5188440  65.6621080
   3.1487040  13.1131350  59.3580450   3.0201670  13.1049250  60.3065370
   2.3249060  13.4514440  59.0071460  10.8239950  26.2832390  64.8327680
  11.4662180  25.5825550  64.9459850  11.3489300  27.0630830  64.6524570
  14.6695670  26.5681010  54.5566820  14.4433250  25.8511450  55.1491460
  14.2791870  26.3193450  53.7188570  14.2511920  24.4852950  56.2180980
  13.9633620  24.9465640  57.0058860  15.0464090  24.0250720  56.4865200
   6.4680320  27.9779070  56.1484950   6.4590420  28.7108760  55.5329460
   5.5478680  27.7310650  56.2411910  11.6419750  17.3644780  66.5688600
  12.0100570  16.5439990  66.8968170  10.7817950  17.4246670  66.9844250
  15.0081780  16.3201720  57.3776160  14.3794940  16.4247390  56.6634390
  14.5133700  16.5398500  58.1670040   9.4539920  28.0407310  54.8110140
   9.5551900  27.8371300  53.8812120   8.5541660  27.7865590  55.0157920
   6.9765810  18.5987670  58.7934040   6.2681960  19.0674010  59.2347650
   7.2610290  17.9409680  59.4279230   8.6021740  20.0184370  66.7926570
   9.1006990  20.4930190  67.4578420   8.7444690  19.0947890  66.9996600
  11.0081240  15.3238330  60.2329830  10.8849020  15.3424460  59.2839340
  11.9565800  15.3717270  60.3528230   8.0958030  30.5593630  59.5057810
   8.3499530  30.5215020  58.5837180   7.1470510  30.4326960  59.4986060
   5.1800830  16.9072750  56.1684750   6.0291360  17.3442900  56.1024940
   4.8132100  17.2193010  56.9956810  14.1010610  21.4785510  61.0816320
  13.1600750  21.4935740  61.2564010  14.4154680  20.6921470  61.5276620
   4.0792250  23.1605110  54.6420280   4.8455520  23.0486470  55.2045710
   4.1566940  22.4643080  53.9897050   2.7739010  20.5930180  55.3253170
   2.8542600  19.6457690  55.4370570   3.6658760  20.9237060  55.4313830
  16.1036190  28.6494360  62.7570580  16.2283610  29.4725530  63.2294390
  16.9701750  28.4385090  62.4094730   3.5753720  30.7425570  62.4287710
   4.3116200  30.1941030  62.6996280   3.9594640  31.6081580  62.2893700
   6.6856030  29.9155880  54.2513280   7.4784640  30.2044710  53.7995070
   6.1660380  29.4848050  53.5725760  15.7386200  29.1426010  55.6750020
  15.4527710  28.7291150  54.8604200  15.5405750  30.0713720  55.5550540
   7.2033430  25.1359290  54.1155630   7.0984070  24.5211640  54.8417010
   7.0357650  24.6125180  53.3318640  10.4436160  24.1979320  54.7197620
   9.8946260  24.6448620  55.3640360  11.0655420  23.6928570  55.2435290
   6.1111280  23.1570240  56.6162920   6.5327700  22.9910110  57.4594310
   6.2362120  22.3470470  56.1218060   8.6238920  22.1807850  53.8640020
   9.1444580  21.4656870  53.4981170   9.2707320  22.8193720  54.1640530
   7.5272440  14.6602400  66.5358580   7.0789740  14.6826660  65.6904130
   6.8937640  14.2621420  67.1328880   7.9331990  23.5556730  67.1571020
   8.3520100  24.3989460  66.9847260   7.0140620  23.6928770  66.9277800
  12.6083790  21.8410100  67.1171370  12.0819010  22.3652720  66.5136510
  12.9515130  22.4737490  67.7481100   5.0070180  19.2303470  53.5621080
   4.8059240  18.3670830  53.9234420   4.8362230  19.1436830  52.6242680
  12.4858490  14.0411700  56.0907960  12.7660780  13.1979600  56.4467380
  11.7124220  14.2734810  56.6046710   3.8052980  16.3304090  53.5498960
   4.1078880  16.3371520  52.6418110   4.5447570  15.9801950  54.0466620
   7.0237910  15.2738710  54.5355160   6.6759910  14.5962700  53.9557610
   7.2250680  14.8128220  55.3498550   9.1886950  30.2619460  56.1541760
  10.0837740  30.6004430  56.1760520   9.2204580  29.5398870  55.5266040
   2.8283110  25.6346510  54.3828760   3.2657980  26.1776180  55.0386340
   3.3130840  24.8093460  54.3925100   4.6390830  26.7544550  59.4950990
   4.3386370  26.6309520  60.3954900   4.5328320  25.8953140  59.0866720
  17.4082750  26.5340950  54.1977670  16.5775710  26.6017600  54.6684900
  17.5854580  27.4245070  53.8944530  16.8639210  23.2788430  56.7011870
  17.6258120  23.8485080  56.8071560  16.8793580  22.7115630  57.4720180
  17.8699180  24.1338530  61.5453800  18.2408010  23.3505850  61.1389770
  18.5101110  24.8227630  61.3671100  14.8532940  25.5175110  66.9584120
  14.0392780  25.9472270  67.2209910  15.2607140  26.1293520  66.3453170
  16.9158380  23.5722800  53.8584390  17.1907220  24.4801680  53.7303610
  16.7269120  23.5085330  54.7946380  13.3133990  16.5967650  55.1538020
  13.7318870  16.4098630  54.3134680  13.0070050  15.7446700  55.4640950
  16.8123720  21.5091790  58.8513820  16.4367320  20.7419720  58.4195110
  16.0826840  21.8914490  59.3388750  16.0874680  19.7349280  62.1521060
  16.6112160  19.2411930  61.5211230  16.6734100  19.8699640  62.8968630
  16.2664400  19.8189150  65.6740610  15.3167110  19.7852690  65.7885600
  16.4477410  20.7289260  65.4390380   1.7683000  14.1230160  53.8241890
   2.4911130  14.6639100  54.1423110   2.0407520  13.8493580  52.9483430
  15.5774650  18.9922630  58.0913470  16.0733770  18.7593500  58.8762350
  15.3790720  18.1534470  57.6751110  17.0061810  17.6283580  60.6251150
  16.8961090  17.4739620  61.5633420  17.7669400  17.1004520  60.3826560
  15.3527530  13.5677710  67.0834150  15.9899750  14.1811850  67.4493340
  15.5002420  13.6038370  66.1383380  17.8952080  15.4591500  53.8657290
  18.8201390  15.3272680  53.6575580  17.8727870  15.5384320  54.8193740
  17.9690570  16.2302160  56.4914000  17.1742070  16.1647280  57.0206910
  18.1733850  17.1652800  56.4799350  14.9108990  30.2693710  60.4852390
  15.5068060  29.9478280  59.8086810  15.1687140  29.7965530  61.2765660
   6.5177590  28.2571210  66.2352740   6.2768950  28.5245770  65.3483260
   7.4580230  28.4276940  66.2903600  17.7781750  30.2765590  67.0363380
  17.2840030  30.6734460  66.3190510  17.1695040  29.6514800  67.4300660
  12.1014610  12.9406100  65.9570830  11.2274450  13.2741210  65.7543760
  11.9925360  12.4679280  66.7822700  13.0086590  15.1476970  67.3412550
  12.6799950  14.3328730  66.9614280  13.9568890  15.1046780  67.2178240
  15.4621200  30.9189010  64.3150120  15.0024170  31.6704820  63.9408140
  14.8333660  30.1995480  64.2564920   5.8916920  29.2277250  63.4898250
   6.4081940  28.6164610  62.9646510   6.5414300  29.7306030  63.9809260
   8.6312420  30.1185740  64.3167230   8.9190230  29.8640040  63.4400240
   9.1435640  29.5663100  64.9072800   9.8489430  13.8575940  64.8963740
   9.0661220  14.3321440  65.1760500   9.5552360  12.9530770  64.7876920
  14.4010500  14.5599040  62.9412830  14.8418590  14.5044140  62.0934430
  14.1318090  15.4757050  63.0123010  16.2649070  14.1914280  60.9521650
  16.2037470  13.2475500  60.8052670  17.0441100  14.2994370  61.4975110
   7.7343650  16.2762690  60.4079770   6.9218160  15.9019580  60.0675650
   8.2385290  15.5207770  60.7100960  12.2368630  12.9405140  61.6462840
  12.8398000  13.5125350  62.1211360  11.4961620  13.5044580  61.4236740
  15.3803230  13.3426700  56.9203120  15.5753860  14.2410150  57.1870550
  14.5933100  13.1113780  57.4136070   3.5654990  14.6887470  55.9579430
   4.0947750  13.9017270  55.8287380   4.1983310  15.3678660  56.1914960
   5.7592830  14.4262610  59.0124820   5.1295570  13.7249920  59.1794950
   5.2197970  15.1866740  58.7957980  16.9329840  30.5827410  58.6809680
  17.1082030  29.8965150  58.0370600  16.2351410  31.1074460  58.2886350
   4.7757490  30.9722250  56.2344990   5.5076310  30.6881530  55.6868880
   5.0351160  30.7335530  57.1244370   3.9372280  27.0886980  56.2391320
   3.3081160  27.5572080  56.7877150   4.0520110  26.2436200  56.6737510
  11.3922000  21.1392640  42.3892520  11.3116050  20.2247250  42.1184230
  10.9786420  21.6359710  41.6832230   9.5240040  22.9171660  44.2701790
   8.7482140  22.4372100  44.5600360  10.1752970  22.2377310  44.0957950
   3.5405870  23.2291470  45.1477550   2.7090750  22.9740180  45.5474060
   4.1486850  23.3002240  45.8835470  13.5447470  27.3231850  43.0500920
  13.0829000  26.5519090  43.3788090  14.3573020  27.3497920  43.5553370
   3.5207130  27.2631560  45.3435570   3.8235170  26.3729300  45.1645790
   4.2650720  27.8201780  45.1157820   9.7710780  29.6089860  42.6704910
   9.1522220  30.0647360  42.0999350  10.6262560  29.7641320  42.2694610
   8.9649030  25.5928850  44.2771950   8.8957310  24.6518790  44.1161080
   9.7268890  25.6830260  44.8494520   9.9954200  18.3999230  44.5040880
  10.3719020  17.5271110  44.3914550   9.8973710  18.7357930  43.6131320
   4.1259210  16.7724860  39.9658320   4.2325960  17.6728590  40.2727080
   3.2151570  16.7242830  39.6752970  13.7778320  15.8949670  41.4369220
  14.5987940  15.4046240  41.4794700  13.8112400  16.4847330  42.1901060
   5.9666940  19.7411230  44.2983500   6.4745160  20.2392200  44.9388520
   6.4980180  18.9646430  44.1222860  18.0677870  17.9116420  48.0012850
  17.3630040  18.2998130  47.4827960  18.3335790  18.6066710  48.6033780
   4.2503040  14.3809790  48.5646920   4.2521480  14.8982180  47.7592820
   3.4207350  13.9039970  48.5416850  10.6374130  24.4929100  40.0636820
  10.0191400  24.9578550  39.4999540  11.1497380  25.1856580  40.4806330
   5.5005890  24.0204970  46.7420420   5.1675270  24.6473890  47.3841490
   5.6772570  24.5466850  45.9622090  14.0139800  17.8350050  44.2096760
  13.3095370  18.1234940  44.7899870  14.3751960  18.6450160  43.8496320
   3.9318370  16.0919750  46.5717370   4.2735180  16.9361800  46.2771240
   2.9934180  16.2403490  46.6882710   4.7124990  25.9885770  48.5569600
   5.3298990  26.6636850  48.2754050   3.8518110  26.3973750  48.4657100
  15.6302580  27.4525180  46.4724240  14.9466100  28.1224290  46.4640910
  16.1696870  27.6505830  45.7069100  17.0826720  17.2804840  44.6005970
  16.1351630  17.3143820  44.7321400  17.4076710  18.0943790  44.9855330
   7.6146260  13.5802020  42.8961960   7.9221240  13.0248910  42.1797460
   6.6846960  13.7146480  42.7134950  13.1661320  29.2969310  45.1869420
  13.1788480  28.8931600  44.3191680  12.6136540  30.0716600  45.0830850
  14.4606740  26.0185530  40.2759590  14.3503070  25.0759860  40.4009010
  14.4574990  26.3801170  41.1622350  12.5646760  24.1999150  46.5152030
  12.9815550  23.9859260  45.6805490  13.2886580  24.4571940  47.0860650
  10.0027020  21.6450850  39.6322080   9.0756300  21.5788230  39.8610550
  10.1551840  22.5830980  39.5177320   9.9896100  17.9167850  36.6289240
   9.0499770  18.0781810  36.7141700  10.3079360  18.6353530  36.0825230
  16.5108860  22.5986370  46.6068270  15.6827490  22.6679460  46.1318400
  17.1059340  23.1840680  46.1384100  14.0324310  23.2071150  40.1357330
  13.4136730  22.8690700  39.4883630  14.0148760  22.5630910  40.8436520
  13.4750870  19.3855690  47.5523140  13.0622050  20.2109400  47.8063130
  12.7426820  18.8000730  47.3599500   5.6083660  22.1715590  42.4141810
   5.2040660  21.4592840  41.9187710   5.6946780  21.8268830  43.3029850
   6.0765360  25.8583150  44.5781020   5.7793650  25.2528620  43.8988800
   7.0265180  25.8960460  44.4670380   4.3212280  18.9458800  46.1940850
   4.8726870  19.0554140  45.4194100   4.8355790  19.3196400  46.9096080
  14.1650970  29.4315020  48.2404120  13.6881530  30.2387210  48.0476730
  13.4812760  28.7793350  48.3930330   5.1683790  25.5964840  51.2288820
   4.2712320  25.8204810  51.4762220   5.1936660  25.7199780  50.2800220
  12.2089010  22.4457960  37.1430080  12.6482290  21.6080390  36.9967900
  12.9217430  23.0787360  37.2294220   3.9955010  22.4678160  49.8046190
   3.8562780  23.3400960  50.1733590   3.1136370  22.1250970  49.6594130
  10.3184390  27.3854030  41.1111320  10.7580300  28.1278360  40.6966710
  10.2571280  27.6280600  42.0350280   5.7935360  28.4099860  52.0131340
   5.7650790  28.8142810  51.1459770   5.6300330  27.4810220  51.8502940
  15.7906150  13.7000770  35.4571120  15.4778810  13.7927600  36.3570190
  16.5518620  14.2781800  35.4068550   2.3088290  21.0660570  39.9148460
   2.1885890  21.7922660  39.3029730   1.9989180  20.2963480  39.4376370
  17.7450180  29.1926960  53.3095510  18.2209900  29.6709850  53.9884590
  18.3657340  29.1244450  52.5841010  17.1483430  26.3839810  50.4695520
  17.2746490  26.1451690  49.5512700  17.1904810  25.5524350  50.9417600
  11.0100170  30.0867810  49.0390330  11.5244840  29.9975820  49.8412760
  10.1669250  30.4327510  49.3318240  12.9854570  30.3723150  38.4674330
  12.8255710  30.0826090  39.3656160  12.8201280  29.5963280  37.9319560
   5.4642950  30.1521680  40.2445950   5.2885430  29.2357220  40.0313750
   4.6098690  30.5108970  40.4843750  12.6880700  27.8810710  37.0272330
  11.9945860  27.8788000  36.3674610  13.4303560  27.4570030  36.5966500
  12.2530630  29.5073420  41.1020820  12.7087580  28.7262800  41.4159440
  12.5923150  30.2180240  41.6462000  17.0007440  18.4372270  51.4345260
  16.3851710  18.9451940  50.9060720  16.6803860  17.5370600  51.3771200
   4.7751950  14.4095640  43.2972130   4.3320100  15.1905180  42.9656650
   5.3336940  14.7325530  44.0043070   9.0621760  17.2764160  48.9007450
   8.6001130  17.4847180  49.7127390   8.6599870  16.4623510  48.5978120
  14.0626270  18.4973110  50.0304110  13.2119860  18.1978860  50.3513180
  13.9028060  18.7415120  49.1187930  11.1575980  19.9974860  52.1302900
  11.4829390  19.1638610  51.7905130  11.9456310  20.5203380  52.2781230
   7.8910770  14.0306340  38.1777960   7.2664950  14.0266210  38.9031270
   7.8040890  13.1637300  37.7813930   6.8127850  14.9542970  45.1561730
   7.1100180  15.8605800  45.0753750   7.3613410  14.4661750  44.5421300
   4.5666170  19.5329210  41.0253380   4.3407090  19.3166380  41.9300000
   3.7858700  19.9657670  40.6799350  11.7963930  19.5392580  39.6244030
  11.1972820  20.2628380  39.4407650  12.3443540  19.4769360  38.8420480
   7.0065380  20.4314790  51.6913650   6.9108980  19.4909520  51.5414050
   7.8497360  20.6529860  51.2961720  10.4028800  18.1756120  41.6547310
  10.7958370  18.4928320  40.8416000  10.7645650  17.2968000  41.7691830
   8.7120970  16.9263430  52.9144170   8.0219290  16.7335630  53.5490260
   9.4553270  17.2098070  53.4468470  10.9883940  20.7661870  45.7498090
  10.2565060  21.2748680  46.0988190  10.5908280  19.9491850  45.4486870
   7.4261330  17.4416070  44.1550580   7.4297390  17.0006020  43.3055120
   8.3212450  17.7633400  44.2622400   3.2763710  17.3242560  43.1144790
   2.9363760  17.8017790  43.8711840   2.5141030  16.8707680  42.7545890
   7.4881480  18.4428150  37.1457340   7.6094300  18.4014630  38.0943160
   7.1029990  19.3052300  36.9904070  11.4509850  16.2195550  45.1621030
  11.4682590  16.6704200  46.0062880  11.2025430  15.3201190  45.3754470
   6.5002980  20.7529290  36.5440640   5.9319880  20.3047540  35.9176550
   7.2091980  21.1122070  36.0105790  14.8780600  13.6327730  51.0007410
  15.2026370  12.9017390  51.5265390  14.9137110  13.3141370  50.0988400
   7.7269300  21.5017850  45.9015990   8.0939430  21.0276420  46.6477330
   7.5374360  22.3759420  46.2424330   5.5168670  20.5426490  48.2200200
   5.2125740  21.4218470  48.4450560   6.4715130  20.6026280  48.2557640
   4.0450460  24.7487480  38.8167050   3.2712720  24.2085100  38.6565770
   4.7745090  24.2294090  38.4784810  14.8038440  23.7452840  44.6093440
  15.5237560  24.2408130  44.2189550  14.6020260  23.0670730  43.9647310
  10.2648380  15.1390800  38.7522830   9.4512990  14.6403970  38.6768140
  10.0710330  15.9789050  38.3359180  10.1857240  23.8161900  50.4962440
  10.1194550  22.8957570  50.2420030   9.5562380  23.9137340  51.2107080
  12.9796770  19.5110450  37.0484990  13.8676390  19.8227680  36.8736330
  12.9501860  18.6382700  36.6565570   4.0887860  24.4167860  42.4545860
   4.6066530  23.6136120  42.4002750   3.6371880  24.3547000  43.2962690
   8.9757360  25.6834140  37.7273160   9.3173060  26.4276370  37.2316480
   8.1470070  25.9965260  38.0897990   4.7745520  21.8413470  52.2511110
   4.4745660  21.9870650  51.3538930   5.5456760  21.2818760  52.1584500
  10.1173970  26.6382470  50.2466240  10.1318510  25.7063430  50.0285150
   9.4099070  26.7242230  50.8856010  15.2511040  20.8222290  36.5164850
  15.1674760  21.2536510  35.6661290  15.9705230  21.2820640  36.9491670
  16.3285180  23.2789810  49.5934820  15.6033370  23.8718590  49.3964210
  16.8560640  23.2713350  48.7948190  16.2798290  27.6764550  39.2446980
  15.6374450  27.0220170  39.5190700  15.8928950  28.0819640  38.4687650
  11.8584770  25.0049980  43.0918670  12.2108590  24.4078110  42.4320040
  10.9747100  24.6794210  43.2626920   7.9448050  25.7647670  40.4989080
   8.6319180  26.3116880  40.8796670   7.1580470  26.3088400  40.5338690
   7.2475260  22.7693700  40.1114440   7.7038040  23.5798950  40.3374630
   6.8963470  22.4516840  40.9432930   9.5507870  28.2800040  47.3406740
  10.1950090  28.4859420  48.0180160   9.9137310  27.5188440  46.8877590
   3.1487040  13.1131350  40.5836960   3.0201670  13.1049250  41.5321880
   2.3249060  13.4514440  40.2327970  10.8239950  26.2832390  46.0584190
  11.4662180  25.5825550  46.1716360  11.3489300  27.0630830  45.8781080
  14.6695670  26.5681010  35.7823330  14.4433250  25.8511450  36.3747970
  14.2791870  26.3193450  34.9445080  12.5977570  27.0827290  49.2620250
  12.9333810  27.6693980  49.9398170  11.6777910  26.9520000  49.4918040
  14.2511920  24.4852950  37.4437490  13.9633620  24.9465640  38.2315370
  15.0464090  24.0250720  37.7121710   8.4266150  27.1318620  52.4308310
   8.1063020  26.4127860  52.9754000   7.7524510  27.8073690  52.5044370
   6.4680320  27.9779070  37.3741460   6.4590420  28.7108760  36.7585970
   5.5478680  27.7310650  37.4668420  11.6419750  17.3644780  47.7945110
  12.0100570  16.5439990  48.1224680  10.7817950  17.4246670  48.2100760
  15.0081780  16.3201720  38.6032670  14.3794940  16.4247390  37.8890900
  14.5133700  16.5398500  39.3926550   9.4539920  28.0407310  36.0366650
   9.5551900  27.8371300  35.1068630   8.5541660  27.7865590  36.2414430
   6.9765810  18.5987670  40.0190550   6.2681960  19.0674010  40.4604160
   7.2610290  17.9409680  40.6535740   8.6021740  20.0184370  48.0183080
   9.1006990  20.4930190  48.6834930   8.7444690  19.0947890  48.2253110
  11.0081240  15.3238330  41.4586340  10.8849020  15.3424460  40.5095850
  11.9565800  15.3717270  41.5784740   8.0958030  30.5593630  40.7314320
   8.3499530  30.5215020  39.8093690   7.1470510  30.4326960  40.7242570
   5.1800830  16.9072750  37.3941260   6.0291360  17.3442900  37.3281450
   4.8132100  17.2193010  38.2213320  15.8088600  16.2352330  48.8611470
  15.3062200  16.9757730  49.2005280  16.6245260  16.6236330  48.5448260
  14.1010610  21.4785510  42.3072830  13.1600750  21.4935740  42.4820520
  14.4154680  20.6921470  42.7533130   4.0792250  23.1605110  35.8676790
   4.8455520  23.0486470  36.4302220   4.1566940  22.4643080  35.2153560
   2.7739010  20.5930180  36.5509680   2.8542600  19.6457690  36.6627080
   3.6658760  20.9237060  36.6570340  16.1036190  28.6494360  43.9827090
  16.2283610  29.4725530  44.4550900  16.9701750  28.4385090  43.6351240
   3.5753720  30.7425570  43.6544220   4.3116200  30.1941030  43.9252790
   3.9594640  31.6081580  43.5150210   2.5812000  29.9271640  52.8429800
   3.3824730  30.2483690  53.2565200   2.0663820  29.5667220  53.5649710
   6.6856030  29.9155880  35.4769790   7.4784640  30.2044710  35.0251580
   6.1660380  29.4848050  34.7982270  11.4176630  26.0351510  52.7905210
  10.8114790  26.0583110  52.0500960  11.1130740  25.3034550  53.3272460
  12.8477000  29.7631800  51.4014620  13.7998750  29.6789820  51.3514860
  12.7005220  30.4273510  52.0748410  15.7386200  29.1426010  36.9006530
  15.4527710  28.7291150  36.0860710  15.5405750  30.0713720  36.7807050
   7.2033430  25.1359290  35.3412140   7.0984070  24.5211640  36.0673520
   7.0357650  24.6125180  34.5575150   7.3547750  23.8216090  51.3201370
   6.5893420  24.3901090  51.2356040   7.5363710  23.5292300  50.4269600
  10.4436160  24.1979320  35.9454130   9.8946260  24.6448620  36.5896870
  11.0655420  23.6928570  36.4691800  14.4971100  25.5521420  51.8776390
  15.2380570  25.8897180  51.3743850  13.7343780  25.7213480  51.3246160
   2.3332890  20.5574690  52.6815920   2.3738230  20.2588560  53.5901150
   3.1878390  20.9582300  52.5223440   6.1111280  23.1570240  37.8419430
   6.5327700  22.9910110  38.6850820   6.2362120  22.3470470  37.3474570
   4.2738700  19.1366790  50.6490410   3.7435160  18.6457740  50.0213750
   4.9426770  19.5650990  50.1148340   8.6238920  22.1807850  35.0896530
   9.1444580  21.4656870  34.7237680   9.2707320  22.8193720  35.3897040
  13.1716760  23.6036250  50.4131600  13.5857780  23.7581330  51.2622020
  12.2367760  23.7291470  50.5757380  13.6438930  20.9432410  52.4170750
  14.2259700  20.1884730  52.3291230  13.8200700  21.4739850  51.6402230
   4.7611000  16.1029160  50.7287700   4.6667870  15.4849910  50.0038570
   4.1808390  16.8295450  50.5017610   7.5272440  14.6602400  47.7615090
   7.0789740  14.6826660  46.9160640   6.8937640  14.2621420  48.3585390
   7.9331990  23.5556730  48.3827530   8.3520100  24.3989460  48.2103770
   7.0140620  23.6928770  48.1534310  10.2695890  21.2872910  49.7665370
  10.3892100  20.6914050  50.5060210  11.1289890  21.3242600  49.3466670
  12.6083790  21.8410100  48.3427880  12.0819010  22.3652720  47.7393020
  12.9515130  22.4737490  48.9737610   5.0070180  19.2303470  34.7877590
   4.8059240  18.3670830  35.1490930   4.8362230  19.1436830  33.8499190
   5.7839410  29.8609740  49.4985260   5.2460500  30.5855800  49.1793960
   6.0373370  29.3840080  48.7082600   7.0364660  17.8294260  51.0241190
   7.6264350  17.5210110  51.7119010   6.2184900  17.3574010  51.1801090
  11.8558090  17.4460070  51.2574210  11.1673610  16.7841610  51.1924200
  12.5764110  16.9998340  51.7022670  12.4858490  14.0411700  37.3164470
  12.7660780  13.1979600  37.6723890  11.7124220  14.2734810  37.8303220
   3.8052980  16.3304090  34.7755470   4.1078880  16.3371520  33.8674620
   4.5447570  15.9801950  35.2723130   8.6401620  31.0960950  49.7571910
   8.5660320  31.9996090  50.0644280   7.7380460  30.7772850  49.7293980
   7.0237910  15.2738710  35.7611670   6.6759910  14.5962700  35.1814120
   7.2250680  14.8128220  36.5755060   9.1886950  30.2619460  37.3798270
  10.0837740  30.6004430  37.4017030   9.2204580  29.5398870  36.7522550
   2.8283110  25.6346510  35.6085270   3.2657980  26.1776180  36.2642850
   3.3130840  24.8093460  35.6181610   4.6390830  26.7544550  40.7207500
   4.3386370  26.6309520  41.6211410   4.5328320  25.8953140  40.3123230
  16.1681300  28.7923130  50.0864470  15.5683290  28.8515690  49.3428390
  16.2975200  27.8528110  50.2161320  17.4082750  26.5340950  35.4234180
  16.5775710  26.6017600  35.8941410  17.5854580  27.4245070  35.1201040
  16.8639210  23.2788430  37.9268380  17.6258120  23.8485080  38.0328070
  16.8793580  22.7115630  38.6976690  17.8699180  24.1338530  42.7710310
  18.2408010  23.3505850  42.3646280  18.5101110  24.8227630  42.5927610
  14.8532940  25.5175110  48.1840630  14.0392780  25.9472270  48.4466420
  15.2607140  26.1293520  47.5709680  16.9158380  23.5722800  35.0840900
  17.1907220  24.4801680  34.9560120  16.7269120  23.5085330  36.0202890
  13.3133990  16.5967650  36.3794530  13.7318870  16.4098630  35.5391190
  13.0070050  15.7446700  36.6897460  16.8123720  21.5091790  40.0770330
  16.4367320  20.7419720  39.6451620  16.0826840  21.8914490  40.5645260
  16.2023340  20.6563310  49.7109850  15.9709430  20.4276060  48.8107800
  16.4627890  21.5762860  49.6654740  14.6411410  15.8819740  52.4889550
  15.5181590  15.8903140  52.8723550  14.6532250  15.1450580  51.8781900
  16.0874680  19.7349280  43.3777570  16.6112160  19.2411930  42.7467740
  16.6734100  19.8699640  44.1225140  16.2664400  19.8189150  46.8997120
  15.3167110  19.7852690  47.0142110  16.4477410  20.7289260  46.6646890
   1.7683000  14.1230160  35.0498400   2.4911130  14.6639100  35.3679620
   2.0407520  13.8493580  34.1739940  15.5774650  18.9922630  39.3169980
  16.0733770  18.7593500  40.1018860  15.3790720  18.1534470  38.9007620
  17.0061810  17.6283580  41.8507660  16.8961090  17.4739620  42.7889930
  17.7669400  17.1004520  41.6083070  15.3527530  13.5677710  48.3090660
  15.9899750  14.1811850  48.6749850  15.5002420  13.6038370  47.3639890
  17.8952080  15.4591500  35.0913800  18.8201390  15.3272680  34.8832090
  17.8727870  15.5384320  36.0450250  17.9690570  16.2302160  37.7170510
  17.1742070  16.1647280  38.2463420  18.1733850  17.1652800  37.7055860
  14.9108990  30.2693710  41.7108900  15.5068060  29.9478280  41.0343320
  15.1687140  29.7965530  42.5022170   2.8171560  26.7011620  51.8599530
   2.7741190  26.3304530  52.7413990   2.9482570  27.6389190  52.0001350
   6.5177590  28.2571210  47.4609250   6.2768950  28.5245770  46.5739770
   7.4580230  28.4276940  47.5160110   8.7232010  14.7203900  51.2165760
   8.6620900  15.3125730  51.9661170   9.6632390  14.6129860  51.0716020
  11.3606570  14.3773960  50.8558050  11.9746980  14.6953250  50.1939130
  11.9056130  13.8922550  51.4753910  17.7781750  30.2765590  48.2619890
  17.2840030  30.6734460  47.5447020  17.1695040  29.6514800  48.6557170
   1.8827830  13.0568220  50.9697110   2.4310820  12.8756270  50.2063220
   1.9483140  12.2662330  51.5053420   2.6559590  29.6473870  48.9797310
   2.0619910  29.5158570  49.7187350   2.6483430  28.8112010  48.5139410
  12.1014610  12.9406100  47.1827340  11.2274450  13.2741210  46.9800270
  11.9925360  12.4679280  48.0079210  13.0086590  15.1476970  48.5669060
  12.6799950  14.3328730  48.1870790  13.9568890  15.1046780  48.4434750
  15.4621200  30.9189010  45.5406630  15.0024170  31.6704820  45.1664650
  14.8333660  30.1995480  45.4821430   5.8916920  29.2277250  44.7154760
   6.4081940  28.6164610  44.1903020   6.5414300  29.7306030  45.2065770
   8.6312420  30.1185740  45.5423740   8.9190230  29.8640040  44.6656750
   9.1435640  29.5663100  46.1329310   9.8489430  13.8575940  46.1220250
   9.0661220  14.3321440  46.4017010   9.5552360  12.9530770  46.0133430
  14.4010500  14.5599040  44.1669340  14.8418590  14.5044140  43.3190940
  14.1318090  15.4757050  44.2379520  16.2649070  14.1914280  42.1778160
  16.2037470  13.2475500  42.0309180  17.0441100  14.2994370  42.7231620
   7.7343650  16.2762690  41.6336280   6.9218160  15.9019580  41.2932160
   8.2385290  15.5207770  41.9357470  12.2368630  12.9405140  42.8719350
  12.8398000  13.5125350  43.3467870  11.4961620  13.5044580  42.6493250
  15.3803230  13.3426700  38.1459630  15.5753860  14.2410150  38.4127060
  14.5933100  13.1113780  38.6392580   3.5654990  14.6887470  37.1835940
   4.0947750  13.9017270  37.0543890   4.1983310  15.3678660  37.4171470
   5.7592830  14.4262610  40.2381330   5.1295570  13.7249920  40.4051460
   5.2197970  15.1866740  40.0214490   8.6984780  31.0401840  52.9091940
   9.6252090  30.8046110  52.9527900   8.6835210  31.8673840  52.4277970
  16.9329840  30.5827410  39.9066190  17.1082030  29.8965150  39.2627110
  16.2351410  31.1074460  39.5142860   5.8848390  13.7046590  52.6733820
   5.6032660  14.2080190  51.9094640   6.2668090  12.9068340  52.3075950
   4.7757490  30.9722250  37.4601500   5.5076310  30.6881530  36.9125390
   5.0351160  30.7335530  38.3500880   3.9372280  27.0886980  37.4647830
   3.3081160  27.5572080  38.0133660   4.0520110  26.2436200  37.8994020
  12.4863850  13.1200170  53.2514290  12.3729300  13.4394780  54.1465810
  13.3033590  13.5212680  52.9551570  15.2662340  30.2671700  52.7332980
  16.0587660  29.7720930  52.5258940  15.5595490  30.9461840  53.3408590
  11.3922000  21.1392640  23.6149030  11.3116050  20.2247250  23.3440740
  10.9786420  21.6359710  22.9088740   9.5240040  22.9171660  25.4958300
   8.7482140  22.4372100  25.7856870  10.1752970  22.2377310  25.3214460
   3.5405870  23.2291470  26.3734060   2.7090750  22.9740180  26.7730570
   4.1486850  23.3002240  27.1091980  13.5447470  27.3231850  24.2757430
  13.0829000  26.5519090  24.6044600  14.3573020  27.3497920  24.7809880
   3.5207130  27.2631560  26.5692080   3.8235170  26.3729300  26.3902300
   4.2650720  27.8201780  26.3414330   9.7710780  29.6089860  23.8961420
   9.1522220  30.0647360  23.3255860  10.6262560  29.7641320  23.4951120
   8.9649030  25.5928850  25.5028460   8.8957310  24.6518790  25.3417590
   9.7268890  25.6830260  26.0751030   9.9954200  18.3999230  25.7297390
  10.3719020  17.5271110  25.6171060   9.8973710  18.7357930  24.8387830
   4.1259210  16.7724860  21.1914830   4.2325960  17.6728590  21.4983590
   3.2151570  16.7242830  20.9009480  13.7778320  15.8949670  22.6625730
  14.5987940  15.4046240  22.7051210  13.8112400  16.4847330  23.4157570
   5.9666940  19.7411230  25.5240010   6.4745160  20.2392200  26.1645030
   6.4980180  18.9646430  25.3479370  18.0677870  17.9116420  29.2269360
  17.3630040  18.2998130  28.7084470  18.3335790  18.6066710  29.8290290
   4.2503040  14.3809790  29.7903430   4.2521480  14.8982180  28.9849330
   3.4207350  13.9039970  29.7673360  10.6374130  24.4929100  21.2893330
  10.0191400  24.9578550  20.7256050  11.1497380  25.1856580  21.7062840
   5.5005890  24.0204970  27.9676930   5.1675270  24.6473890  28.6098000
   5.6772570  24.5466850  27.1878600  14.0139800  17.8350050  25.4353270
  13.3095370  18.1234940  26.0156380  14.3751960  18.6450160  25.0752830
   3.9318370  16.0919750  27.7973880   4.2735180  16.9361800  27.5027750
   2.9934180  16.2403490  27.9139220   4.7124990  25.9885770  29.7826110
   5.3298990  26.6636850  29.5010560   3.8518110  26.3973750  29.6913610
  15.6302580  27.4525180  27.6980750  14.9466100  28.1224290  27.6897420
  16.1696870  27.6505830  26.9325610  17.0826720  17.2804840  25.8262480
  16.1351630  17.3143820  25.9577910  17.4076710  18.0943790  26.2111840
   7.6146260  13.5802020  24.1218470   7.9221240  13.0248910  23.4053970
   6.6846960  13.7146480  23.9391460  13.1661320  29.2969310  26.4125930
  13.1788480  28.8931600  25.5448190  12.6136540  30.0716600  26.3087360
  14.4606740  26.0185530  21.5016100  14.3503070  25.0759860  21.6265520
  14.4574990  26.3801170  22.3878860  12.5646760  24.1999150  27.7408540
  12.9815550  23.9859260  26.9062000  13.2886580  24.4571940  28.3117160
  10.0027020  21.6450850  20.8578590   9.0756300  21.5788230  21.0867060
  10.1551840  22.5830980  20.7433830   9.9896100  17.9167850  17.8545750
   9.0499770  18.0781810  17.9398210  10.3079360  18.6353530  17.3081740
  16.5108860  22.5986370  27.8324780  15.6827490  22.6679460  27.3574910
  17.1059340  23.1840680  27.3640610  14.0324310  23.2071150  21.3613840
  13.4136730  22.8690700  20.7140140  14.0148760  22.5630910  22.0693030
  13.4750870  19.3855690  28.7779650  13.0622050  20.2109400  29.0319640
  12.7426820  18.8000730  28.5856010   5.6083660  22.1715590  23.6398320
   5.2040660  21.4592840  23.1444220   5.6946780  21.8268830  24.5286360
   6.0765360  25.8583150  25.8037530   5.7793650  25.2528620  25.1245310
   7.0265180  25.8960460  25.6926890   4.3212280  18.9458800  27.4197360
   4.8726870  19.0554140  26.6450610   4.8355790  19.3196400  28.1352590
  14.1650970  29.4315020  29.4660630  13.6881530  30.2387210  29.2733240
  13.4812760  28.7793350  29.6186840   5.1683790  25.5964840  32.4545330
   4.2712320  25.8204810  32.7018730   5.1936660  25.7199780  31.5056730
  12.2089010  22.4457960  18.3686590  12.6482290  21.6080390  18.2224410
  12.9217430  23.0787360  18.4550730   3.9955010  22.4678160  31.0302700
   3.8562780  23.3400960  31.3990100   3.1136370  22.1250970  30.8850640
  10.3184390  27.3854030  22.3367830  10.7580300  28.1278360  21.9223220
  10.2571280  27.6280600  23.2606790   5.7935360  28.4099860  33.2387850
   5.7650790  28.8142810  32.3716280   5.6300330  27.4810220  33.0759450
  15.7906150  13.7000770  16.6827630  15.4778810  13.7927600  17.5826700
  16.5518620  14.2781800  16.6325060   2.3088290  21.0660570  21.1404970
   2.1885890  21.7922660  20.5286240   1.9989180  20.2963480  20.6632880
  17.7450180  29.1926960  34.5352020  18.2209900  29.6709850  35.2141100
  18.3657340  29.1244450  33.8097520  17.1483430  26.3839810  31.6952030
  17.2746490  26.1451690  30.7769210  17.1904810  25.5524350  32.1674110
  11.0100170  30.0867810  30.2646840  11.5244840  29.9975820  31.0669270
  10.1669250  30.4327510  30.5574750  12.9854570  30.3723150  19.6930840
  12.8255710  30.0826090  20.5912670  12.8201280  29.5963280  19.1576070
   5.4642950  30.1521680  21.4702460   5.2885430  29.2357220  21.2570260
   4.6098690  30.5108970  21.7100260  12.6880700  27.8810710  18.2528840
  11.9945860  27.8788000  17.5931120  13.4303560  27.4570030  17.8223010
  12.2530630  29.5073420  22.3277330  12.7087580  28.7262800  22.6415950
  12.5923150  30.2180240  22.8718510  17.0007440  18.4372270  32.6601770
  16.3851710  18.9451940  32.1317230  16.6803860  17.5370600  32.6027710
   4.7751950  14.4095640  24.5228640   4.3320100  15.1905180  24.1913160
   5.3336940  14.7325530  25.2299580   9.0621760  17.2764160  30.1263960
   8.6001130  17.4847180  30.9383900   8.6599870  16.4623510  29.8234630
  14.0626270  18.4973110  31.2560620  13.2119860  18.1978860  31.5769690
  13.9028060  18.7415120  30.3444440  11.1575980  19.9974860  33.3559410
  11.4829390  19.1638610  33.0161640  11.9456310  20.5203380  33.5037740
   7.8910770  14.0306340  19.4034470   7.2664950  14.0266210  20.1287780
   7.8040890  13.1637300  19.0070440   6.8127850  14.9542970  26.3818240
   7.1100180  15.8605800  26.3010260   7.3613410  14.4661750  25.7677810
   4.5666170  19.5329210  22.2509890   4.3407090  19.3166380  23.1556510
   3.7858700  19.9657670  21.9055860  11.7963930  19.5392580  20.8500540
  11.1972820  20.2628380  20.6664160  12.3443540  19.4769360  20.0676990
   7.0065380  20.4314790  32.9170160   6.9108980  19.4909520  32.7670560
   7.8497360  20.6529860  32.5218230  10.4028800  18.1756120  22.8803820
  10.7958370  18.4928320  22.0672510  10.7645650  17.2968000  22.9948340
   8.7120970  16.9263430  34.1400680   8.0219290  16.7335630  34.7746770
   9.4553270  17.2098070  34.6724980  10.9883940  20.7661870  26.9754600
  10.2565060  21.2748680  27.3244700  10.5908280  19.9491850  26.6743380
   7.4261330  17.4416070  25.3807090   7.4297390  17.0006020  24.5311630
   8.3212450  17.7633400  25.4878910   3.2763710  17.3242560  24.3401300
   2.9363760  17.8017790  25.0968350   2.5141030  16.8707680  23.9802400
   7.4881480  18.4428150  18.3713850   7.6094300  18.4014630  19.3199670
   7.1029990  19.3052300  18.2160580  11.4509850  16.2195550  26.3877540
  11.4682590  16.6704200  27.2319390  11.2025430  15.3201190  26.6010980
   6.5002980  20.7529290  17.7697150   5.9319880  20.3047540  17.1433060
   7.2091980  21.1122070  17.2362300  14.8780600  13.6327730  32.2263920
  15.2026370  12.9017390  32.7521900  14.9137110  13.3141370  31.3244910
   7.7269300  21.5017850  27.1272500   8.0939430  21.0276420  27.8733840
   7.5374360  22.3759420  27.4680840   5.5168670  20.5426490  29.4456710
   5.2125740  21.4218470  29.6707070   6.4715130  20.6026280  29.4814150
   4.0450460  24.7487480  20.0423560   3.2712720  24.2085100  19.8822280
   4.7745090  24.2294090  19.7041320  14.8038440  23.7452840  25.8349950
  15.5237560  24.2408130  25.4446060  14.6020260  23.0670730  25.1903820
  10.2648380  15.1390800  19.9779340   9.4512990  14.6403970  19.9024650
  10.0710330  15.9789050  19.5615690  10.1857240  23.8161900  31.7218950
  10.1194550  22.8957570  31.4676540   9.5562380  23.9137340  32.4363590
  12.9796770  19.5110450  18.2741500  13.8676390  19.8227680  18.0992840
  12.9501860  18.6382700  17.8822080   4.0887860  24.4167860  23.6802370
   4.6066530  23.6136120  23.6259260   3.6371880  24.3547000  24.5219200
   8.9757360  25.6834140  18.9529670   9.3173060  26.4276370  18.4572990
   8.1470070  25.9965260  19.3154500   4.7745520  21.8413470  33.4767620
   4.4745660  21.9870650  32.5795440   5.5456760  21.2818760  33.3841010
  10.1173970  26.6382470  31.4722750  10.1318510  25.7063430  31.2541660
   9.4099070  26.7242230  32.1112520  15.2511040  20.8222290  17.7421360
  15.1674760  21.2536510  16.8917800  15.9705230  21.2820640  18.1748180
  16.3285180  23.2789810  30.8191330  15.6033370  23.8718590  30.6220720
  16.8560640  23.2713350  30.0204700  16.2798290  27.6764550  20.4703490
  15.6374450  27.0220170  20.7447210  15.8928950  28.0819640  19.6944160
  11.8584770  25.0049980  24.3175180  12.2108590  24.4078110  23.6576550
  10.9747100  24.6794210  24.4883430   7.9448050  25.7647670  21.7245590
   8.6319180  26.3116880  22.1053180   7.1580470  26.3088400  21.7595200
   7.2475260  22.7693700  21.3370950   7.7038040  23.5798950  21.5631140
   6.8963470  22.4516840  22.1689440   9.5507870  28.2800040  28.5663250
  10.1950090  28.4859420  29.2436670   9.9137310  27.5188440  28.1134100
   3.1487040  13.1131350  21.8093470   3.0201670  13.1049250  22.7578390
   2.3249060  13.4514440  21.4584480  10.8239950  26.2832390  27.2840700
  11.4662180  25.5825550  27.3972870  11.3489300  27.0630830  27.1037590
  14.6695670  26.5681010  17.0079840  14.4433250  25.8511450  17.6004480
  14.2791870  26.3193450  16.1701590  12.5977570  27.0827290  30.4876760
  12.9333810  27.6693980  31.1654680  11.6777910  26.9520000  30.7174550
  14.2511920  24.4852950  18.6694000  13.9633620  24.9465640  19.4571880
  15.0464090  24.0250720  18.9378220   8.4266150  27.1318620  33.6564820
   8.1063020  26.4127860  34.2010510   7.7524510  27.8073690  33.7300880
   6.4680320  27.9779070  18.5997970   6.4590420  28.7108760  17.9842480
   5.5478680  27.7310650  18.6924930  11.6419750  17.3644780  29.0201620
  12.0100570  16.5439990  29.3481190  10.7817950  17.4246670  29.4357270
  15.0081780  16.3201720  19.8289180  14.3794940  16.4247390  19.1147410
  14.5133700  16.5398500  20.6183060   9.4539920  28.0407310  17.2623160
   9.5551900  27.8371300  16.3325140   8.5541660  27.7865590  17.4670940
   6.9765810  18.5987670  21.2447060   6.2681960  19.0674010  21.6860670
   7.2610290  17.9409680  21.8792250   8.6021740  20.0184370  29.2439590
   9.1006990  20.4930190  29.9091440   8.7444690  19.0947890  29.4509620
  11.0081240  15.3238330  22.6842850  10.8849020  15.3424460  21.7352360
  11.9565800  15.3717270  22.8041250   8.0958030  30.5593630  21.9570830
   8.3499530  30.5215020  21.0350200   7.1470510  30.4326960  21.9499080
   5.1800830  16.9072750  18.6197770   6.0291360  17.3442900  18.5537960
   4.8132100  17.2193010  19.4469830  15.8088600  16.2352330  30.0867980
  15.3062200  16.9757730  30.4261790  16.6245260  16.6236330  29.7704770
  14.1010610  21.4785510  23.5329340  13.1600750  21.4935740  23.7077030
  14.4154680  20.6921470  23.9789640   4.0792250  23.1605110  17.0933300
   4.8455520  23.0486470  17.6558730   4.1566940  22.4643080  16.4410070
   2.7739010  20.5930180  17.7766190   2.8542600  19.6457690  17.8883590
   3.6658760  20.9237060  17.8826850  16.1036190  28.6494360  25.2083600
  16.2283610  29.4725530  25.6807410  16.9701750  28.4385090  24.8607750
   3.5753720  30.7425570  24.8800730   4.3116200  30.1941030  25.1509300
   3.9594640  31.6081580  24.7406720   2.5812000  29.9271640  34.0686310
   3.3824730  30.2483690  34.4821710   2.0663820  29.5667220  34.7906220
   6.6856030  29.9155880  16.7026300   7.4784640  30.2044710  16.2508090
   6.1660380  29.4848050  16.0238780  11.4176630  26.0351510  34.0161720
  10.8114790  26.0583110  33.2757470  11.1130740  25.3034550  34.5528970
  12.8477000  29.7631800  32.6271130  13.7998750  29.6789820  32.5771370
  12.7005220  30.4273510  33.3004920  15.7386200  29.1426010  18.1263040
  15.4527710  28.7291150  17.3117220  15.5405750  30.0713720  18.0063560
   7.2033430  25.1359290  16.5668650   7.0984070  24.5211640  17.2930030
   7.0357650  24.6125180  15.7831660   7.3547750  23.8216090  32.5457880
   6.5893420  24.3901090  32.4612550   7.5363710  23.5292300  31.6526110
  10.4436160  24.1979320  17.1710640   9.8946260  24.6448620  17.8153380
  11.0655420  23.6928570  17.6948310  14.4971100  25.5521420  33.1032900
  15.2380570  25.8897180  32.6000360  13.7343780  25.7213480  32.5502670
   2.3332890  20.5574690  33.9072430   2.3738230  20.2588560  34.8157660
   3.1878390  20.9582300  33.7479950   6.1111280  23.1570240  19.0675940
   6.5327700  22.9910110  19.9107330   6.2362120  22.3470470  18.5731080
   4.2738700  19.1366790  31.8746920   3.7435160  18.6457740  31.2470260
   4.9426770  19.5650990  31.3404850   8.6238920  22.1807850  16.3153040
   9.1444580  21.4656870  15.9494190   9.2707320  22.8193720  16.6153550
  13.1716760  23.6036250  31.6388110  13.5857780  23.7581330  32.4878530
  12.2367760  23.7291470  31.8013890  13.6438930  20.9432410  33.6427260
  14.2259700  20.1884730  33.5547740  13.8200700  21.4739850  32.8658740
   4.7611000  16.1029160  31.9544210   4.6667870  15.4849910  31.2295080
   4.1808390  16.8295450  31.7274120   7.5272440  14.6602400  28.9871600
   7.0789740  14.6826660  28.1417150   6.8937640  14.2621420  29.5841900
   7.9331990  23.5556730  29.6084040   8.3520100  24.3989460  29.4360280
   7.0140620  23.6928770  29.3790820  10.2695890  21.2872910  30.9921880
  10.3892100  20.6914050  31.7316720  11.1289890  21.3242600  30.5723180
  12.6083790  21.8410100  29.5684390  12.0819010  22.3652720  28.9649530
  12.9515130  22.4737490  30.1994120   5.0070180  19.2303470  16.0134100
   4.8059240  18.3670830  16.3747440   4.8362230  19.1436830  15.0755700
   5.7839410  29.8609740  30.7241770   5.2460500  30.5855800  30.4050470
   6.0373370  29.3840080  29.9339110   7.0364660  17.8294260  32.2497700
   7.6264350  17.5210110  32.9375520   6.2184900  17.3574010  32.4057600
  11.8558090  17.4460070  32.4830720  11.1673610  16.7841610  32.4180710
  12.5764110  16.9998340  32.9279180  12.4858490  14.0411700  18.5420980
  12.7660780  13.1979600  18.8980400  11.7124220  14.2734810  19.0559730
   3.8052980  16.3304090  16.0011980   4.1078880  16.3371520  15.0931130
   4.5447570  15.9801950  16.4979640   8.6401620  31.0960950  30.9828420
   8.5660320  31.9996090  31.2900790   7.7380460  30.7772850  30.9550490
   7.0237910  15.2738710  16.9868180   6.6759910  14.5962700  16.4070630
   7.2250680  14.8128220  17.8011570   9.1886950  30.2619460  18.6054780
  10.0837740  30.6004430  18.6273540   9.2204580  29.5398870  17.9779060
   2.8283110  25.6346510  16.8341780   3.2657980  26.1776180  17.4899360
   3.3130840  24.8093460  16.8438120   4.6390830  26.7544550  21.9464010
   4.3386370  26.6309520  22.8467920   4.5328320  25.8953140  21.5379740
  16.1681300  28.7923130  31.3120980  15.5683290  28.8515690  30.5684900
  16.2975200  27.8528110  31.4417830  17.4082750  26.5340950  16.6490690
  16.5775710  26.6017600  17.1197920  17.5854580  27.4245070  16.3457550
  16.8639210  23.2788430  19.1524890  17.6258120  23.8485080  19.2584580
  16.8793580  22.7115630  19.9233200  17.8699180  24.1338530  23.9966820
  18.2408010  23.3505850  23.5902790  18.5101110  24.8227630  23.8184120
  14.8532940  25.5175110  29.4097140  14.0392780  25.9472270  29.6722930
  15.2607140  26.1293520  28.7966190  16.9158380  23.5722800  16.3097410
  17.1907220  24.4801680  16.1816630  16.7269120  23.5085330  17.2459400
  13.3133990  16.5967650  17.6051040  13.7318870  16.4098630  16.7647700
  13.0070050  15.7446700  17.9153970  16.8123720  21.5091790  21.3026840
  16.4367320  20.7419720  20.8708130  16.0826840  21.8914490  21.7901770
  16.2023340  20.6563310  30.9366360  15.9709430  20.4276060  30.0364310
  16.4627890  21.5762860  30.8911250  14.6411410  15.8819740  33.7146060
  15.5181590  15.8903140  34.0980060  14.6532250  15.1450580  33.1038410
  16.0874680  19.7349280  24.6034080  16.6112160  19.2411930  23.9724250
  16.6734100  19.8699640  25.3481650  16.2664400  19.8189150  28.1253630
  15.3167110  19.7852690  28.2398620  16.4477410  20.7289260  27.8903400
   1.7683000  14.1230160  16.2754910   2.4911130  14.6639100  16.5936130
   2.0407520  13.8493580  15.3996450  15.5774650  18.9922630  20.5426490
  16.0733770  18.7593500  21.3275370  15.3790720  18.1534470  20.1264130
  17.0061810  17.6283580  23.0764170  16.8961090  17.4739620  24.0146440
  17.7669400  17.1004520  22.8339580  15.3527530  13.5677710  29.5347170
  15.9899750  14.1811850  29.9006360  15.5002420  13.6038370  28.5896400
  17.8952080  15.4591500  16.3170310  18.8201390  15.3272680  16.1088600
  17.8727870  15.5384320  17.2706760  17.9690570  16.2302160  18.9427020
  17.1742070  16.1647280  19.4719930  18.1733850  17.1652800  18.9312370
  14.9108990  30.2693710  22.9365410  15.5068060  29.9478280  22.2599830
  15.1687140  29.7965530  23.7278680   2.8171560  26.7011620  33.0856040
   2.7741190  26.3304530  33.9670500   2.9482570  27.6389190  33.2257860
   6.5177590  28.2571210  28.6865760   6.2768950  28.5245770  27.7996280
   7.4580230  28.4276940  28.7416620   8.7232010  14.7203900  32.4422270
   8.6620900  15.3125730  33.1917680   9.6632390  14.6129860  32.2972530
  11.3606570  14.3773960  32.0814560  11.9746980  14.6953250  31.4195640
  11.9056130  13.8922550  32.7010420  17.7781750  30.2765590  29.4876400
  17.2840030  30.6734460  28.7703530  17.1695040  29.6514800  29.8813680
   1.8827830  13.0568220  32.1953620   2.4310820  12.8756270  31.4319730
   1.9483140  12.2662330  32.7309930   2.6559590  29.6473870  30.2053820
   2.0619910  29.5158570  30.9443860   2.6483430  28.8112010  29.7395920
  12.1014610  12.9406100  28.4083850  11.2274450  13.2741210  28.2056780
  11.9925360  12.4679280  29.2335720  13.0086590  15.1476970  29.7925570
  12.6799950  14.3328730  29.4127300  13.9568890  15.1046780  29.6691260
  15.4621200  30.9189010  26.7663140  15.0024170  31.6704820  26.3921160
  14.8333660  30.1995480  26.7077940   5.8916920  29.2277250  25.9411270
   6.4081940  28.6164610  25.4159530   6.5414300  29.7306030  26.4322280
   8.6312420  30.1185740  26.7680250   8.9190230  29.8640040  25.8913260
   9.1435640  29.5663100  27.3585820   9.8489430  13.8575940  27.3476760
   9.0661220  14.3321440  27.6273520   9.5552360  12.9530770  27.2389940
  14.4010500  14.5599040  25.3925850  14.8418590  14.5044140  24.5447450
  14.1318090  15.4757050  25.4636030  16.2649070  14.1914280  23.4034670
  16.2037470  13.2475500  23.2565690  17.0441100  14.2994370  23.9488130
   7.7343650  16.2762690  22.8592790   6.9218160  15.9019580  22.5188670
   8.2385290  15.5207770  23.1613980  12.2368630  12.9405140  24.0975860
  12.8398000  13.5125350  24.5724380  11.4961620  13.5044580  23.8749760
  15.3803230  13.3426700  19.3716140  15.5753860  14.2410150  19.6383570
  14.5933100  13.1113780  19.8649090   3.5654990  14.6887470  18.4092450
   4.0947750  13.9017270  18.2800400   4.1983310  15.3678660  18.6427980
   5.7592830  14.4262610  21.4637840   5.1295570  13.7249920  21.6307970
   5.2197970  15.1866740  21.2471000   8.6984780  31.0401840  34.1348450
   9.6252090  30.8046110  34.1784410   8.6835210  31.8673840  33.6534480
  16.9329840  30.5827410  21.1322700  17.1082030  29.8965150  20.4883620
  16.2351410  31.1074460  20.7399370   5.8848390  13.7046590  33.8990330
   5.6032660  14.2080190  33.1351150   6.2668090  12.9068340  33.5332460
   4.7757490  30.9722250  18.6858010   5.5076310  30.6881530  18.1381900
   5.0351160  30.7335530  19.5757390   3.9372280  27.0886980  18.6904340
   3.3081160  27.5572080  19.2390170   4.0520110  26.2436200  19.1250530
  12.4863850  13.1200170  34.4770800  12.3729300  13.4394780  35.3722320
  13.3033590  13.5212680  34.1808080  15.2662340  30.2671700  33.9589490
  16.0587660  29.7720930  33.7515450  15.5595490  30.9461840  34.5665100
  11.3922000  21.1392640   4.8405540  11.3116050  20.2247250   4.5697250
  10.9786420  21.6359710   4.1345250   9.5240040  22.9171660   6.7214810
   8.7482140  22.4372100   7.0113380  10.1752970  22.2377310   6.5470970
   3.5405870  23.2291470   7.5990570   2.7090750  22.9740180   7.9987080
   4.1486850  23.3002240   8.3348490  13.5447470  27.3231850   5.5013940
  13.0829000  26.5519090   5.8301110  14.3573020  27.3497920   6.0066390
   3.5207130  27.2631560   7.7948590   3.8235170  26.3729300   7.6158810
   4.2650720  27.8201780   7.5670840   9.7710780  29.6089860   5.1217930
   9.1522220  30.0647360   4.5512370  10.6262560  29.7641320   4.7207630
   8.9649030  25.5928850   6.7284970   8.8957310  24.6518790   6.5674100
   9.7268890  25.6830260   7.3007540   9.9954200  18.3999230   6.9553900
  10.3719020  17.5271110   6.8427570   9.8973710  18.7357930   6.0644340
   4.1259210  16.7724860   2.4171340   4.2325960  17.6728590   2.7240100
   3.2151570  16.7242830   2.1265990  13.7778320  15.8949670   3.8882240
  14.5987940  15.4046240   3.9307720  13.8112400  16.4847330   4.6414080
   5.9666940  19.7411230   6.7496520   6.4745160  20.2392200   7.3901540
   6.4980180  18.9646430   6.5735880  18.0677870  17.9116420  10.4525870
  17.3630040  18.2998130   9.9340980  18.3335790  18.6066710  11.0546800
   4.2503040  14.3809790  11.0159940   4.2521480  14.8982180  10.2105840
   3.4207350  13.9039970  10.9929870  10.6374130  24.4929100   2.5149840
  10.0191400  24.9578550   1.9512560  11.1497380  25.1856580   2.9319350
   5.5005890  24.0204970   9.1933440   5.1675270  24.6473890   9.8354510
   5.6772570  24.5466850   8.4135110  14.0139800  17.8350050   6.6609780
  13.3095370  18.1234940   7.2412890  14.3751960  18.6450160   6.3009340
   3.9318370  16.0919750   9.0230390   4.2735180  16.9361800   8.7284260
   2.9934180  16.2403490   9.1395730   4.7124990  25.9885770  11.0082620
   5.3298990  26.6636850  10.7267070   3.8518110  26.3973750  10.9170120
  15.6302580  27.4525180   8.9237260  14.9466100  28.1224290   8.9153930
  16.1696870  27.6505830   8.1582120  17.0826720  17.2804840   7.0518990
  16.1351630  17.3143820   7.1834420  17.4076710  18.0943790   7.4368350
   7.6146260  13.5802020   5.3474980   7.9221240  13.0248910   4.6310480
   6.6846960  13.7146480   5.1647970  13.1661320  29.2969310   7.6382440
  13.1788480  28.8931600   6.7704700  12.6136540  30.0716600   7.5343870
  14.4606740  26.0185530   2.7272610  14.3503070  25.0759860   2.8522030
  14.4574990  26.3801170   3.6135370  12.5646760  24.1999150   8.9665050
  12.9815550  23.9859260   8.1318510  13.2886580  24.4571940   9.5373670
  10.0027020  21.6450850   2.0835100   9.0756300  21.5788230   2.3123570
  10.1551840  22.5830980   1.9690340  16.5108860  22.5986370   9.0581290
  15.6827490  22.6679460   8.5831420  17.1059340  23.1840680   8.5897120
  14.0324310  23.2071150   2.5870350  13.4136730  22.8690700   1.9396650
  14.0148760  22.5630910   3.2949540  13.4750870  19.3855690  10.0036160
  13.0622050  20.2109400  10.2576150  12.7426820  18.8000730   9.8112520
   5.6083660  22.1715590   4.8654830   5.2040660  21.4592840   4.3700730
   5.6946780  21.8268830   5.7542870   6.0765360  25.8583150   7.0294040
   5.7793650  25.2528620   6.3501820   7.0265180  25.8960460   6.9183400
   4.3212280  18.9458800   8.6453870   4.8726870  19.0554140   7.8707120
   4.8355790  19.3196400   9.3609100  14.1650970  29.4315020  10.6917140
  13.6881530  30.2387210  10.4989750  13.4812760  28.7793350  10.8443350
   5.1683790  25.5964840  13.6801840   4.2712320  25.8204810  13.9275240
   5.1936660  25.7199780  12.7313240   3.9955010  22.4678160  12.2559210
   3.8562780  23.3400960  12.6246610   3.1136370  22.1250970  12.1107150
  10.3184390  27.3854030   3.5624340  10.7580300  28.1278360   3.1479730
  10.2571280  27.6280600   4.4863300   5.7935360  28.4099860  14.4644360
   5.7650790  28.8142810  13.5972790   5.6300330  27.4810220  14.3015960
   2.3088290  21.0660570   2.3661480   2.1885890  21.7922660   1.7542750
   1.9989180  20.2963480   1.8889390  17.7450180  29.1926960  15.7608530
  18.2209900  29.6709850  16.4397610  18.3657340  29.1244450  15.0354030
  17.1483430  26.3839810  12.9208540  17.2746490  26.1451690  12.0025720
  17.1904810  25.5524350  13.3930620  11.0100170  30.0867810  11.4903350
  11.5244840  29.9975820  12.2925780  10.1669250  30.4327510  11.7831260
   5.4642950  30.1521680   2.6958970   5.2885430  29.2357220   2.4826770
   4.6098690  30.5108970   2.9356770  12.2530630  29.5073420   3.5533840
  12.7087580  28.7262800   3.8672460  12.5923150  30.2180240   4.0975020
  17.0007440  18.4372270  13.8858280  16.3851710  18.9451940  13.3573740
  16.6803860  17.5370600  13.8284220   4.7751950  14.4095640   5.7485150
   4.3320100  15.1905180   5.4169670   5.3336940  14.7325530   6.4556090
   9.0621760  17.2764160  11.3520470   8.6001130  17.4847180  12.1640410
   8.6599870  16.4623510  11.0491140  14.0626270  18.4973110  12.4817130
  13.2119860  18.1978860  12.8026200  13.9028060  18.7415120  11.5700950
  11.1575980  19.9974860  14.5815920  11.4829390  19.1638610  14.2418150
  11.9456310  20.5203380  14.7294250   6.8127850  14.9542970   7.6074750
   7.1100180  15.8605800   7.5266770   7.3613410  14.4661750   6.9934320
   4.5666170  19.5329210   3.4766400   4.3407090  19.3166380   4.3813020
   3.7858700  19.9657670   3.1312370   7.0065380  20.4314790  14.1426670
   6.9108980  19.4909520  13.9927070   7.8497360  20.6529860  13.7474740
  10.4028800  18.1756120   4.1060330  10.7958370  18.4928320   3.2929020
  10.7645650  17.2968000   4.2204850   8.7120970  16.9263430  15.3657190
   8.0219290  16.7335630  16.0003280   9.4553270  17.2098070  15.8981490
  10.9883940  20.7661870   8.2011110  10.2565060  21.2748680   8.5501210
  10.5908280  19.9491850   7.8999890   7.4261330  17.4416070   6.6063600
   7.4297390  17.0006020   5.7568140   8.3212450  17.7633400   6.7135420
   3.2763710  17.3242560   5.5657810   2.9363760  17.8017790   6.3224860
   2.5141030  16.8707680   5.2058910  11.4509850  16.2195550   7.6134050
  11.4682590  16.6704200   8.4575900  11.2025430  15.3201190   7.8267490
  14.8780600  13.6327730  13.4520430  15.2026370  12.9017390  13.9778410
  14.9137110  13.3141370  12.5501420   7.7269300  21.5017850   8.3529010
   8.0939430  21.0276420   9.0990350   7.5374360  22.3759420   8.6937350
   5.5168670  20.5426490  10.6713220   5.2125740  21.4218470  10.8963580
   6.4715130  20.6026280  10.7070660  14.8038440  23.7452840   7.0606460
  15.5237560  24.2408130   6.6702570  14.6020260  23.0670730   6.4160330
  10.1857240  23.8161900  12.9475460  10.1194550  22.8957570  12.6933050
   9.5562380  23.9137340  13.6620100   4.0887860  24.4167860   4.9058880
   4.6066530  23.6136120   4.8515770   3.6371880  24.3547000   5.7475710
   4.7745520  21.8413470  14.7024130   4.4745660  21.9870650  13.8051950
   5.5456760  21.2818760  14.6097520  10.1173970  26.6382470  12.6979260
  10.1318510  25.7063430  12.4798170   9.4099070  26.7242230  13.3369030
  16.3285180  23.2789810  12.0447840  15.6033370  23.8718590  11.8477230
  16.8560640  23.2713350  11.2461210  11.8584770  25.0049980   5.5431690
  12.2108590  24.4078110   4.8833060  10.9747100  24.6794210   5.7139940
   7.9448050  25.7647670   2.9502100   8.6319180  26.3116880   3.3309690
   7.1580470  26.3088400   2.9851710   7.2475260  22.7693700   2.5627460
   7.7038040  23.5798950   2.7887650   6.8963470  22.4516840   3.3945950
   9.5507870  28.2800040   9.7919760  10.1950090  28.4859420  10.4693180
   9.9137310  27.5188440   9.3390610   3.1487040  13.1131350   3.0349980
   3.0201670  13.1049250   3.9834900   2.3249060  13.4514440   2.6840990
  10.8239950  26.2832390   8.5097210  11.4662180  25.5825550   8.6229380
  11.3489300  27.0630830   8.3294100  12.5977570  27.0827290  11.7133270
  12.9333810  27.6693980  12.3911190  11.6777910  26.9520000  11.9431060
   8.4266150  27.1318620  14.8821330   8.1063020  26.4127860  15.4267020
   7.7524510  27.8073690  14.9557390  11.6419750  17.3644780  10.2458130
  12.0100570  16.5439990  10.5737700  10.7817950  17.4246670  10.6613780
   6.9765810  18.5987670   2.4703570   6.2681960  19.0674010   2.9117180
   7.2610290  17.9409680   3.1048760   8.6021740  20.0184370  10.4696100
   9.1006990  20.4930190  11.1347950   8.7444690  19.0947890  10.6766130
  11.0081240  15.3238330   3.9099360  10.8849020  15.3424460   2.9608870
  11.9565800  15.3717270   4.0297760   8.0958030  30.5593630   3.1827340
   8.3499530  30.5215020   2.2606710   7.1470510  30.4326960   3.1755590
  15.8088600  16.2352330  11.3124490  15.3062200  16.9757730  11.6518300
  16.6245260  16.6236330  10.9961280  14.1010610  21.4785510   4.7585850
  13.1600750  21.4935740   4.9333540  14.4154680  20.6921470   5.2046150
  16.1036190  28.6494360   6.4340110  16.2283610  29.4725530   6.9063920
  16.9701750  28.4385090   6.0864260   3.5753720  30.7425570   6.1057240
   4.3116200  30.1941030   6.3765810   3.9594640  31.6081580   5.9663230
   2.5812000  29.9271640  15.2942820   3.3824730  30.2483690  15.7078220
   2.0663820  29.5667220  16.0162730  11.4176630  26.0351510  15.2418230
  10.8114790  26.0583110  14.5013980  11.1130740  25.3034550  15.7785480
  12.8477000  29.7631800  13.8527640  13.7998750  29.6789820  13.8027880
  12.7005220  30.4273510  14.5261430   7.3547750  23.8216090  13.7714390
   6.5893420  24.3901090  13.6869060   7.5363710  23.5292300  12.8782620
  14.4971100  25.5521420  14.3289410  15.2380570  25.8897180  13.8256870
  13.7343780  25.7213480  13.7759180   2.3332890  20.5574690  15.1328940
   2.3738230  20.2588560  16.0414170   3.1878390  20.9582300  14.9736460
   4.2738700  19.1366790  13.1003430   3.7435160  18.6457740  12.4726770
   4.9426770  19.5650990  12.5661360  13.1716760  23.6036250  12.8644620
  13.5857780  23.7581330  13.7135040  12.2367760  23.7291470  13.0270400
  13.6438930  20.9432410  14.8683770  14.2259700  20.1884730  14.7804250
  13.8200700  21.4739850  14.0915250   4.7611000  16.1029160  13.1800720
   4.6667870  15.4849910  12.4551590   4.1808390  16.8295450  12.9530630
   7.5272440  14.6602400  10.2128110   7.0789740  14.6826660   9.3673660
   6.8937640  14.2621420  10.8098410   7.9331990  23.5556730  10.8340550
   8.3520100  24.3989460  10.6616790   7.0140620  23.6928770  10.6047330
  10.2695890  21.2872910  12.2178390  10.3892100  20.6914050  12.9573230
  11.1289890  21.3242600  11.7979690  12.6083790  21.8410100  10.7940900
  12.0819010  22.3652720  10.1906040  12.9515130  22.4737490  11.4250630
   5.7839410  29.8609740  11.9498280   5.2460500  30.5855800  11.6306980
   6.0373370  29.3840080  11.1595620   7.0364660  17.8294260  13.4754210
   7.6264350  17.5210110  14.1632030   6.2184900  17.3574010  13.6314110
  11.8558090  17.4460070  13.7087230  11.1673610  16.7841610  13.6437220
  12.5764110  16.9998340  14.1535690   8.6401620  31.0960950  12.2084930
   8.5660320  31.9996090  12.5157300   7.7380460  30.7772850  12.1807000
   4.6390830  26.7544550   3.1720520   4.3386370  26.6309520   4.0724430
   4.5328320  25.8953140   2.7636250  16.1681300  28.7923130  12.5377490
  15.5683290  28.8515690  11.7941410  16.2975200  27.8528110  12.6674340
  17.8699180  24.1338530   5.2223330  18.2408010  23.3505850   4.8159300
  18.5101110  24.8227630   5.0440630  14.8532940  25.5175110  10.6353650
  14.0392780  25.9472270  10.8979440  15.2607140  26.1293520  10.0222700
  16.8123720  21.5091790   2.5283350  16.4367320  20.7419720   2.0964640
  16.0826840  21.8914490   3.0158280  16.2023340  20.6563310  12.1622870
  15.9709430  20.4276060  11.2620820  16.4627890  21.5762860  12.1167760
  14.6411410  15.8819740  14.9402570  15.5181590  15.8903140  15.3236570
  14.6532250  15.1450580  14.3294920  16.0874680  19.7349280   5.8290590
  16.6112160  19.2411930   5.1980760  16.6734100  19.8699640   6.5738160
  16.2664400  19.8189150   9.3510140  15.3167110  19.7852690   9.4655130
  16.4477410  20.7289260   9.1159910  15.5774650  18.9922630   1.7683000
  16.0733770  18.7593500   2.5531880  15.3790720  18.1534470   1.3520640
  17.0061810  17.6283580   4.3020680  16.8961090  17.4739620   5.2402950
  17.7669400  17.1004520   4.0596090  15.3527530  13.5677710  10.7603680
  15.9899750  14.1811850  11.1262870  15.5002420  13.6038370   9.8152910
  14.9108990  30.2693710   4.1621920  15.5068060  29.9478280   3.4856340
  15.1687140  29.7965530   4.9535190   2.8171560  26.7011620  14.3112550
   2.7741190  26.3304530  15.1927010   2.9482570  27.6389190  14.4514370
   6.5177590  28.2571210   9.9122270   6.2768950  28.5245770   9.0252790
   7.4580230  28.4276940   9.9673130   8.7232010  14.7203900  13.6678780
   8.6620900  15.3125730  14.4174190   9.6632390  14.6129860  13.5229040
  11.3606570  14.3773960  13.3071070  11.9746980  14.6953250  12.6452150
  11.9056130  13.8922550  13.9266930  17.7781750  30.2765590  10.7132910
  17.2840030  30.6734460   9.9960040  17.1695040  29.6514800  11.1070190
   1.8827830  13.0568220  13.4210130   2.4310820  12.8756270  12.6576240
   1.9483140  12.2662330  13.9566440   2.6559590  29.6473870  11.4310330
   2.0619910  29.5158570  12.1700370   2.6483430  28.8112010  10.9652430
  12.1014610  12.9406100   9.6340360  11.2274450  13.2741210   9.4313290
  11.9925360  12.4679280  10.4592230  13.0086590  15.1476970  11.0182080
  12.6799950  14.3328730  10.6383810  13.9568890  15.1046780  10.8947770
  15.4621200  30.9189010   7.9919650  15.0024170  31.6704820   7.6177670
  14.8333660  30.1995480   7.9334450   5.8916920  29.2277250   7.1667780
   6.4081940  28.6164610   6.6416040   6.5414300  29.7306030   7.6578790
   8.6312420  30.1185740   7.9936760   8.9190230  29.8640040   7.1169770
   9.1435640  29.5663100   8.5842330   9.8489430  13.8575940   8.5733270
   9.0661220  14.3321440   8.8530030   9.5552360  12.9530770   8.4646450
  14.4010500  14.5599040   6.6182360  14.8418590  14.5044140   5.7703960
  14.1318090  15.4757050   6.6892540  16.2649070  14.1914280   4.6291180
  16.2037470  13.2475500   4.4822200  17.0441100  14.2994370   5.1744640
   7.7343650  16.2762690   4.0849300   6.9218160  15.9019580   3.7445180
   8.2385290  15.5207770   4.3870490  12.2368630  12.9405140   5.3232370
  12.8398000  13.5125350   5.7980890  11.4961620  13.5044580   5.1006270
   5.7592830  14.4262610   2.6894350   5.1295570  13.7249920   2.8564480
   5.2197970  15.1866740   2.4727510   8.6984780  31.0401840  15.3604960
   9.6252090  30.8046110  15.4040920   8.6835210  31.8673840  14.8790990
  16.9329840  30.5827410   2.3579210  17.1082030  29.8965150   1.7140130
  16.2351410  31.1074460   1.9655880   5.8848390  13.7046590  15.1246840
   5.6032660  14.2080190  14.3607660   6.2668090  12.9068340  14.7588970
  12.4863850  13.1200170  15.7027310  12.3729300  13.4394780  16.5978830
  13.3033590  13.5212680  15.4064590  15.2662340  30.2671700  15.1846000
  16.0587660  29.7720930  14.9771960  15.5595490  30.9461840  15.7921610
   9.5240040   4.1428170  63.0445280   8.7482140   3.6628610  63.3343850
  10.1752970   3.4633820  62.8701440   3.5405870   4.4547980  63.9221040
   2.7090750   4.1996690  64.3217550   4.1486850   4.5258750  64.6578960
  13.5447470   8.5488360  61.8244410  13.0829000   7.7775600  62.1531580
  14.3573020   8.5754430  62.3296860   3.5207130   8.4888070  64.1179060
   3.8235170   7.5985810  63.9389280   4.2650720   9.0458290  63.8901310
   9.7710780  10.8346370  61.4448400   9.1522220  11.2903870  60.8742840
  10.6262560  10.9897830  61.0438100   8.9649030   6.8185360  63.0515440
   8.8957310   5.8775300  62.8904570   9.7268890   6.9086770  63.6238010
  10.6374130   5.7185610  58.8380310  10.0191400   6.1835060  58.2743030
  11.1497380   6.4113090  59.2549820   5.5005890   5.2461480  65.5163910
   5.1675270   5.8730400  66.1584980   5.6772570   5.7723360  64.7365580
   4.7124990   7.2142280  67.3313090   5.3298990   7.8893360  67.0497540
   3.8518110   7.6230260  67.2400590  15.6302580   8.6781690  65.2467730
  14.9466100   9.3480800  65.2384400  16.1696870   8.8762340  64.4812590
  13.1661320  10.5225820  63.9612910  13.1788480  10.1188110  63.0935170
  12.6136540  11.2973110  63.8574340  14.4606740   7.2442040  59.0503080
  14.3503070   6.3016370  59.1752500  14.4574990   7.6057680  59.9365840
  12.5646760   5.4255660  65.2895520  12.9815550   5.2115770  64.4548980
  13.2886580   5.6828450  65.8604140  10.0027020   2.8707360  58.4065570
   9.0756300   2.8044740  58.6354040  10.1551840   3.8087490  58.2920810
  16.5108860   3.8242880  65.3811760  15.6827490   3.8935970  64.9061890
  17.1059340   4.4097190  64.9127590  14.0324310   4.4327660  58.9100820
  13.4136730   4.0947210  58.2627120  14.0148760   3.7887420  59.6180010
   5.6083660   3.3972100  61.1885300   5.2040660   2.6849350  60.6931200
   5.6946780   3.0525340  62.0773340   6.0765360   7.0839660  63.3524510
   5.7793650   6.4785130  62.6732290   7.0265180   7.1216970  63.2413870
  14.1650970  10.6571530  67.0147610  13.6881530  11.4643720  66.8220220
  13.4812760  10.0049860  67.1673820  12.2089010   3.6714470  55.9173570
  12.6482290   2.8336900  55.7711390  12.9217430   4.3043870  56.0037710
  10.3184390   8.6110540  59.8854810  10.7580300   9.3534870  59.4710200
  10.2571280   8.8537110  60.8093770   2.3088290   2.2917080  58.6891950
   2.1885890   3.0179170  58.0773220   1.9989180   1.5219990  58.2119860
  12.9854570  11.5979660  57.2417820  12.8255710  11.3082600  58.1399650
  12.8201280  10.8219790  56.7063050   5.4642950  11.3778190  59.0189440
   5.2885430  10.4613730  58.8057240   4.6098690  11.7365480  59.2587240
  12.6880700   9.1067220  55.8015820  11.9945860   9.1044510  55.1418100
  13.4303560   8.6826540  55.3709990  12.2530630  10.7329930  59.8764310
  12.7087580   9.9519310  60.1902930  12.5923150  11.4436750  60.4205490
   6.5002980   1.9785800  55.3184130   5.9319880   1.5304050  54.6920040
   7.2091980   2.3378580  54.7849280   7.7269300   2.7274360  64.6759480
   8.0939430   2.2532930  65.4220820   7.5374360   3.6015930  65.0167820
   5.5168670   1.7683000  66.9943690   5.2125740   2.6474980  67.2194050
   6.4715130   1.8282790  67.0301130   4.0450460   5.9743990  57.5910540
   3.2712720   5.4341610  57.4309260   4.7745090   5.4550600  57.2528300
  14.8038440   4.9709350  63.3836930  15.5237560   5.4664640  62.9933040
  14.6020260   4.2927240  62.7390800   4.0887860   5.6424370  61.2289350
   4.6066530   4.8392630  61.1746240   3.6371880   5.5803510  62.0706180
   8.9757360   6.9090650  56.5016650   9.3173060   7.6532880  56.0059970
   8.1470070   7.2221770  56.8641480  15.2511040   2.0478800  55.2908340
  15.1674760   2.4793020  54.4404780  15.9705230   2.5077150  55.7235160
  16.2798290   8.9021060  58.0190470  15.6374450   8.2476680  58.2934190
  15.8928950   9.3076150  57.2431140  11.8584770   6.2306490  61.8662160
  12.2108590   5.6334620  61.2063530  10.9747100   5.9050720  62.0370410
   7.9448050   6.9904180  59.2732570   8.6319180   7.5373390  59.6540160
   7.1580470   7.5344910  59.3082180   7.2475260   3.9950210  58.8857930
   7.7038040   4.8055460  59.1118120   6.8963470   3.6773350  59.7176420
   9.5507870   9.5056550  66.1150230  10.1950090   9.7115930  66.7923650
   9.9137310   8.7444950  65.6621080  10.8239950   7.5088900  64.8327680
  11.4662180   6.8082060  64.9459850  11.3489300   8.2887340  64.6524570
  14.6695670   7.7937520  54.5566820  14.4433250   7.0767960  55.1491460
  14.2791870   7.5449960  53.7188570  14.2511920   5.7109460  56.2180980
  13.9633620   6.1722150  57.0058860  15.0464090   5.2507230  56.4865200
   6.4680320   9.2035580  56.1484950   6.4590420   9.9365270  55.5329460
   5.5478680   8.9567160  56.2411910   9.4539920   9.2663820  54.8110140
   9.5551900   9.0627810  53.8812120   8.5541660   9.0122100  55.0157920
   8.0958030  11.7850140  59.5057810   8.3499530  11.7471530  58.5837180
   7.1470510  11.6583470  59.4986060  14.1010610   2.7042020  61.0816320
  13.1600750   2.7192250  61.2564010  14.4154680   1.9177980  61.5276620
   4.0792250   4.3861620  54.6420280   4.8455520   4.2742980  55.2045710
   4.1566940   3.6899590  53.9897050  16.1036190   9.8750870  62.7570580
  16.2283610  10.6982040  63.2294390  16.9701750   9.6641600  62.4094730
   3.5753720  11.9682080  62.4287710   4.3116200  11.4197540  62.6996280
   3.9594640  12.8338090  62.2893700   6.6856030  11.1412390  54.2513280
   7.4784640  11.4301220  53.7995070   6.1660380  10.7104560  53.5725760
  15.7386200  10.3682520  55.6750020  15.4527710   9.9547660  54.8604200
  15.5405750  11.2970230  55.5550540   7.2033430   6.3615800  54.1155630
   7.0984070   5.7468150  54.8417010   7.0357650   5.8381690  53.3318640
  10.4436160   5.4235830  54.7197620   9.8946260   5.8705130  55.3640360
  11.0655420   4.9185080  55.2435290   6.1111280   4.3826750  56.6162920
   6.5327700   4.2166620  57.4594310   6.2362120   3.5726980  56.1218060
   8.6238920   3.4064360  53.8640020   9.1444580   2.6913380  53.4981170
   9.2707320   4.0450230  54.1640530   7.9331990   4.7813240  67.1571020
   8.3520100   5.6245970  66.9847260   7.0140620   4.9185280  66.9277800
  12.6083790   3.0666610  67.1171370  12.0819010   3.5909230  66.5136510
  12.9515130   3.6994000  67.7481100   9.1886950  11.4875970  56.1541760
  10.0837740  11.8260940  56.1760520   9.2204580  10.7655380  55.5266040
   2.8283110   6.8603020  54.3828760   3.2657980   7.4032690  55.0386340
   3.3130840   6.0349970  54.3925100   4.6390830   7.9801060  59.4950990
   4.3386370   7.8566030  60.3954900   4.5328320   7.1209650  59.0866720
  17.4082750   7.7597460  54.1977670  16.5775710   7.8274110  54.6684900
  17.5854580   8.6501580  53.8944530  16.8639210   4.5044940  56.7011870
  17.6258120   5.0741590  56.8071560  16.8793580   3.9372140  57.4720180
  17.8699180   5.3595040  61.5453800  18.2408010   4.5762360  61.1389770
  18.5101110   6.0484140  61.3671100  14.8532940   6.7431620  66.9584120
  14.0392780   7.1728780  67.2209910  15.2607140   7.3550030  66.3453170
  16.9158380   4.7979310  53.8584390  17.1907220   5.7058190  53.7303610
  16.7269120   4.7341840  54.7946380  16.8123720   2.7348300  58.8513820
  16.4367320   1.9676230  58.4195110  16.0826840   3.1171000  59.3388750
  14.9108990  11.4950220  60.4852390  15.5068060  11.1734790  59.8086810
  15.1687140  11.0222040  61.2765660   6.5177590   9.4827720  66.2352740
   6.2768950   9.7502280  65.3483260   7.4580230   9.6533450  66.2903600
  17.7781750  11.5022100  67.0363380  17.2840030  11.8990970  66.3190510
  17.1695040  10.8771310  67.4300660  15.4621200  12.1445520  64.3150120
  15.0024170  12.8961330  63.9408140  14.8333660  11.4251990  64.2564920
   5.8916920  10.4533760  63.4898250   6.4081940   9.8421120  62.9646510
   6.5414300  10.9562540  63.9809260   8.6312420  11.3442250  64.3167230
   8.9190230  11.0896550  63.4400240   9.1435640  10.7919610  64.9072800
  16.9329840  11.8083920  58.6809680  17.1082030  11.1221660  58.0370600
  16.2351410  12.3330970  58.2886350   4.7757490  12.1978760  56.2344990
   5.5076310  11.9138040  55.6868880   5.0351160  11.9592040  57.1244370
   3.9372280   8.3143490  56.2391320   3.3081160   8.7828590  56.7877150
   4.0520110   7.4692710  56.6737510   9.5240040   4.1428170  44.2701790
   8.7482140   3.6628610  44.5600360  10.1752970   3.4633820  44.0957950
   3.5405870   4.4547980  45.1477550   2.7090750   4.1996690  45.5474060
   4.1486850   4.5258750  45.8835470  13.5447470   8.5488360  43.0500920
  13.0829000   7.7775600  43.3788090  14.3573020   8.5754430  43.5553370
   3.5207130   8.4888070  45.3435570   3.8235170   7.5985810  45.1645790
   4.2650720   9.0458290  45.1157820   9.7710780  10.8346370  42.6704910
   9.1522220  11.2903870  42.0999350  10.6262560  10.9897830  42.2694610
   8.9649030   6.8185360  44.2771950   8.8957310   5.8775300  44.1161080
   9.7268890   6.9086770  44.8494520  10.6374130   5.7185610  40.0636820
  10.0191400   6.1835060  39.4999540  11.1497380   6.4113090  40.4806330
   5.5005890   5.2461480  46.7420420   5.1675270   5.8730400  47.3841490
   5.6772570   5.7723360  45.9622090   4.7124990   7.2142280  48.5569600
   5.3298990   7.8893360  48.2754050   3.8518110   7.6230260  48.4657100
  15.6302580   8.6781690  46.4724240  14.9466100   9.3480800  46.4640910
  16.1696870   8.8762340  45.7069100  13.1661320  10.5225820  45.1869420
  13.1788480  10.1188110  44.3191680  12.6136540  11.2973110  45.0830850
  14.4606740   7.2442040  40.2759590  14.3503070   6.3016370  40.4009010
  14.4574990   7.6057680  41.1622350  12.5646760   5.4255660  46.5152030
  12.9815550   5.2115770  45.6805490  13.2886580   5.6828450  47.0860650
  10.0027020   2.8707360  39.6322080   9.0756300   2.8044740  39.8610550
  10.1551840   3.8087490  39.5177320  16.5108860   3.8242880  46.6068270
  15.6827490   3.8935970  46.1318400  17.1059340   4.4097190  46.1384100
  14.0324310   4.4327660  40.1357330  13.4136730   4.0947210  39.4883630
  14.0148760   3.7887420  40.8436520   5.6083660   3.3972100  42.4141810
   5.2040660   2.6849350  41.9187710   5.6946780   3.0525340  43.3029850
   6.0765360   7.0839660  44.5781020   5.7793650   6.4785130  43.8988800
   7.0265180   7.1216970  44.4670380  14.1650970  10.6571530  48.2404120
  13.6881530  11.4643720  48.0476730  13.4812760  10.0049860  48.3930330
   5.1683790   6.8221350  51.2288820   4.2712320   7.0461320  51.4762220
   5.1936660   6.9456290  50.2800220  12.2089010   3.6714470  37.1430080
  12.6482290   2.8336900  36.9967900  12.9217430   4.3043870  37.2294220
   3.9955010   3.6934670  49.8046190   3.8562780   4.5657470  50.1733590
   3.1136370   3.3507480  49.6594130  10.3184390   8.6110540  41.1111320
  10.7580300   9.3534870  40.6966710  10.2571280   8.8537110  42.0350280
   5.7935360   9.6356370  52.0131340   5.7650790  10.0399320  51.1459770
   5.6300330   8.7066730  51.8502940   2.3088290   2.2917080  39.9148460
   2.1885890   3.0179170  39.3029730   1.9989180   1.5219990  39.4376370
  17.7450180  10.4183470  53.3095510  18.2209900  10.8966360  53.9884590
  18.3657340  10.3500960  52.5841010  17.1483430   7.6096320  50.4695520
  17.2746490   7.3708200  49.5512700  17.1904810   6.7780860  50.9417600
  11.0100170  11.3124320  49.0390330  11.5244840  11.2232330  49.8412760
  10.1669250  11.6584020  49.3318240  12.9854570  11.5979660  38.4674330
  12.8255710  11.3082600  39.3656160  12.8201280  10.8219790  37.9319560
   5.4642950  11.3778190  40.2445950   5.2885430  10.4613730  40.0313750
   4.6098690  11.7365480  40.4843750  12.6880700   9.1067220  37.0272330
  11.9945860   9.1044510  36.3674610  13.4303560   8.6826540  36.5966500
  12.2530630  10.7329930  41.1020820  12.7087580   9.9519310  41.4159440
  12.5923150  11.4436750  41.6462000   6.5002980   1.9785800  36.5440640
   5.9319880   1.5304050  35.9176550   7.2091980   2.3378580  36.0105790
   7.7269300   2.7274360  45.9015990   8.0939430   2.2532930  46.6477330
   7.5374360   3.6015930  46.2424330   5.5168670   1.7683000  48.2200200
   5.2125740   2.6474980  48.4450560   6.4715130   1.8282790  48.2557640
   4.0450460   5.9743990  38.8167050   3.2712720   5.4341610  38.6565770
   4.7745090   5.4550600  38.4784810  14.8038440   4.9709350  44.6093440
  15.5237560   5.4664640  44.2189550  14.6020260   4.2927240  43.9647310
  10.1857240   5.0418410  50.4962440  10.1194550   4.1214080  50.2420030
   9.5562380   5.1393850  51.2107080   4.0887860   5.6424370  42.4545860
   4.6066530   4.8392630  42.4002750   3.6371880   5.5803510  43.2962690
   8.9757360   6.9090650  37.7273160   9.3173060   7.6532880  37.2316480
   8.1470070   7.2221770  38.0897990   4.7745520   3.0669980  52.2511110
   4.4745660   3.2127160  51.3538930   5.5456760   2.5075270  52.1584500
  10.1173970   7.8638980  50.2466240  10.1318510   6.9319940  50.0285150
   9.4099070   7.9498740  50.8856010  15.2511040   2.0478800  36.5164850
  15.1674760   2.4793020  35.6661290  15.9705230   2.5077150  36.9491670
  16.3285180   4.5046320  49.5934820  15.6033370   5.0975100  49.3964210
  16.8560640   4.4969860  48.7948190  16.2798290   8.9021060  39.2446980
  15.6374450   8.2476680  39.5190700  15.8928950   9.3076150  38.4687650
  11.8584770   6.2306490  43.0918670  12.2108590   5.6334620  42.4320040
  10.9747100   5.9050720  43.2626920   7.9448050   6.9904180  40.4989080
   8.6319180   7.5373390  40.8796670   7.1580470   7.5344910  40.5338690
   7.2475260   3.9950210  40.1114440   7.7038040   4.8055460  40.3374630
   6.8963470   3.6773350  40.9432930   9.5507870   9.5056550  47.3406740
  10.1950090   9.7115930  48.0180160   9.9137310   8.7444950  46.8877590
  10.8239950   7.5088900  46.0584190  11.4662180   6.8082060  46.1716360
  11.3489300   8.2887340  45.8781080  14.6695670   7.7937520  35.7823330
  14.4433250   7.0767960  36.3747970  14.2791870   7.5449960  34.9445080
  12.5977570   8.3083800  49.2620250  12.9333810   8.8950490  49.9398170
  11.6777910   8.1776510  49.4918040  14.2511920   5.7109460  37.4437490
  13.9633620   6.1722150  38.2315370  15.0464090   5.2507230  37.7121710
   8.4266150   8.3575130  52.4308310   8.1063020   7.6384370  52.9754000
   7.7524510   9.0330200  52.5044370   6.4680320   9.2035580  37.3741460
   6.4590420   9.9365270  36.7585970   5.5478680   8.9567160  37.4668420
   9.4539920   9.2663820  36.0366650   9.5551900   9.0627810  35.1068630
   8.5541660   9.0122100  36.2414430   8.0958030  11.7850140  40.7314320
   8.3499530  11.7471530  39.8093690   7.1470510  11.6583470  40.7242570
  14.1010610   2.7042020  42.3072830  13.1600750   2.7192250  42.4820520
  14.4154680   1.9177980  42.7533130   4.0792250   4.3861620  35.8676790
   4.8455520   4.2742980  36.4302220   4.1566940   3.6899590  35.2153560
  16.1036190   9.8750870  43.9827090  16.2283610  10.6982040  44.4550900
  16.9701750   9.6641600  43.6351240   3.5753720  11.9682080  43.6544220
   4.3116200  11.4197540  43.9252790   3.9594640  12.8338090  43.5150210
   2.5812000  11.1528150  52.8429800   3.3824730  11.4740200  53.2565200
   2.0663820  10.7923730  53.5649710   6.6856030  11.1412390  35.4769790
   7.4784640  11.4301220  35.0251580   6.1660380  10.7104560  34.7982270
  11.4176630   7.2608020  52.7905210  10.8114790   7.2839620  52.0500960
  11.1130740   6.5291060  53.3272460  12.8477000  10.9888310  51.4014620
  13.7998750  10.9046330  51.3514860  12.7005220  11.6530020  52.0748410
  15.7386200  10.3682520  36.9006530  15.4527710   9.9547660  36.0860710
  15.5405750  11.2970230  36.7807050   7.2033430   6.3615800  35.3412140
   7.0984070   5.7468150  36.0673520   7.0357650   5.8381690  34.5575150
   7.3547750   5.0472600  51.3201370   6.5893420   5.6157600  51.2356040
   7.5363710   4.7548810  50.4269600  10.4436160   5.4235830  35.9454130
   9.8946260   5.8705130  36.5896870  11.0655420   4.9185080  36.4691800
  14.4971100   6.7777930  51.8776390  15.2380570   7.1153690  51.3743850
  13.7343780   6.9469990  51.3246160   2.3332890   1.7831200  52.6815920
   2.3738230   1.4845070  53.5901150   3.1878390   2.1838810  52.5223440
   6.1111280   4.3826750  37.8419430   6.5327700   4.2166620  38.6850820
   6.2362120   3.5726980  37.3474570   8.6238920   3.4064360  35.0896530
   9.1444580   2.6913380  34.7237680   9.2707320   4.0450230  35.3897040
  13.1716760   4.8292760  50.4131600  13.5857780   4.9837840  51.2622020
  12.2367760   4.9547980  50.5757380   7.9331990   4.7813240  48.3827530
   8.3520100   5.6245970  48.2103770   7.0140620   4.9185280  48.1534310
  10.2695890   2.5129420  49.7665370  10.3892100   1.9170560  50.5060210
  11.1289890   2.5499110  49.3466670  12.6083790   3.0666610  48.3427880
  12.0819010   3.5909230  47.7393020  12.9515130   3.6994000  48.9737610
   5.7839410  11.0866250  49.4985260   5.2460500  11.8112310  49.1793960
   6.0373370  10.6096590  48.7082600   8.6401620  12.3217460  49.7571910
   8.5660320  13.2252600  50.0644280   7.7380460  12.0029360  49.7293980
   9.1886950  11.4875970  37.3798270  10.0837740  11.8260940  37.4017030
   9.2204580  10.7655380  36.7522550   2.8283110   6.8603020  35.6085270
   3.2657980   7.4032690  36.2642850   3.3130840   6.0349970  35.6181610
   4.6390830   7.9801060  40.7207500   4.3386370   7.8566030  41.6211410
   4.5328320   7.1209650  40.3123230  16.1681300  10.0179640  50.0864470
  15.5683290  10.0772200  49.3428390  16.2975200   9.0784620  50.2161320
  17.4082750   7.7597460  35.4234180  16.5775710   7.8274110  35.8941410
  17.5854580   8.6501580  35.1201040  16.8639210   4.5044940  37.9268380
  17.6258120   5.0741590  38.0328070  16.8793580   3.9372140  38.6976690
  17.8699180   5.3595040  42.7710310  18.2408010   4.5762360  42.3646280
  18.5101110   6.0484140  42.5927610  14.8532940   6.7431620  48.1840630
  14.0392780   7.1728780  48.4466420  15.2607140   7.3550030  47.5709680
  16.9158380   4.7979310  35.0840900  17.1907220   5.7058190  34.9560120
  16.7269120   4.7341840  36.0202890  16.8123720   2.7348300  40.0770330
  16.4367320   1.9676230  39.6451620  16.0826840   3.1171000  40.5645260
  16.2023340   1.8819820  49.7109850  15.9709430   1.6532570  48.8107800
  16.4627890   2.8019370  49.6654740  14.9108990  11.4950220  41.7108900
  15.5068060  11.1734790  41.0343320  15.1687140  11.0222040  42.5022170
   2.8171560   7.9268130  51.8599530   2.7741190   7.5561040  52.7413990
   2.9482570   8.8645700  52.0001350   6.5177590   9.4827720  47.4609250
   6.2768950   9.7502280  46.5739770   7.4580230   9.6533450  47.5160110
  17.7781750  11.5022100  48.2619890  17.2840030  11.8990970  47.5447020
  17.1695040  10.8771310  48.6557170   2.6559590  10.8730380  48.9797310
   2.0619910  10.7415080  49.7187350   2.6483430  10.0368520  48.5139410
  15.4621200  12.1445520  45.5406630  15.0024170  12.8961330  45.1664650
  14.8333660  11.4251990  45.4821430   5.8916920  10.4533760  44.7154760
   6.4081940   9.8421120  44.1903020   6.5414300  10.9562540  45.2065770
   8.6312420  11.3442250  45.5423740   8.9190230  11.0896550  44.6656750
   9.1435640  10.7919610  46.1329310   8.6984780  12.2658350  52.9091940
   9.6252090  12.0302620  52.9527900   8.6835210  13.0930350  52.4277970
  16.9329840  11.8083920  39.9066190  17.1082030  11.1221660  39.2627110
  16.2351410  12.3330970  39.5142860   4.7757490  12.1978760  37.4601500
   5.5076310  11.9138040  36.9125390   5.0351160  11.9592040  38.3500880
   3.9372280   8.3143490  37.4647830   3.3081160   8.7828590  38.0133660
   4.0520110   7.4692710  37.8994020  15.2662340  11.4928210  52.7332980
  16.0587660  10.9977440  52.5258940  15.5595490  12.1718350  53.3408590
   9.5240040   4.1428170  25.4958300   8.7482140   3.6628610  25.7856870
  10.1752970   3.4633820  25.3214460   3.5405870   4.4547980  26.3734060
   2.7090750   4.1996690  26.7730570   4.1486850   4.5258750  27.1091980
  13.5447470   8.5488360  24.2757430  13.0829000   7.7775600  24.6044600
  14.3573020   8.5754430  24.7809880   3.5207130   8.4888070  26.5692080
   3.8235170   7.5985810  26.3902300   4.2650720   9.0458290  26.3414330
   9.7710780  10.8346370  23.8961420   9.1522220  11.2903870  23.3255860
  10.6262560  10.9897830  23.4951120   8.9649030   6.8185360  25.5028460
   8.8957310   5.8775300  25.3417590   9.7268890   6.9086770  26.0751030
  10.6374130   5.7185610  21.2893330  10.0191400   6.1835060  20.7256050
  11.1497380   6.4113090  21.7062840   5.5005890   5.2461480  27.9676930
   5.1675270   5.8730400  28.6098000   5.6772570   5.7723360  27.1878600
   4.7124990   7.2142280  29.7826110   5.3298990   7.8893360  29.5010560
   3.8518110   7.6230260  29.6913610  15.6302580   8.6781690  27.6980750
  14.9466100   9.3480800  27.6897420  16.1696870   8.8762340  26.9325610
  13.1661320  10.5225820  26.4125930  13.1788480  10.1188110  25.5448190
  12.6136540  11.2973110  26.3087360  14.4606740   7.2442040  21.5016100
  14.3503070   6.3016370  21.6265520  14.4574990   7.6057680  22.3878860
  12.5646760   5.4255660  27.7408540  12.9815550   5.2115770  26.9062000
  13.2886580   5.6828450  28.3117160  10.0027020   2.8707360  20.8578590
   9.0756300   2.8044740  21.0867060  10.1551840   3.8087490  20.7433830
  16.5108860   3.8242880  27.8324780  15.6827490   3.8935970  27.3574910
  17.1059340   4.4097190  27.3640610  14.0324310   4.4327660  21.3613840
  13.4136730   4.0947210  20.7140140  14.0148760   3.7887420  22.0693030
   5.6083660   3.3972100  23.6398320   5.2040660   2.6849350  23.1444220
   5.6946780   3.0525340  24.5286360   6.0765360   7.0839660  25.8037530
   5.7793650   6.4785130  25.1245310   7.0265180   7.1216970  25.6926890
  14.1650970  10.6571530  29.4660630  13.6881530  11.4643720  29.2733240
  13.4812760  10.0049860  29.6186840   5.1683790   6.8221350  32.4545330
   4.2712320   7.0461320  32.7018730   5.1936660   6.9456290  31.5056730
  12.2089010   3.6714470  18.3686590  12.6482290   2.8336900  18.2224410
  12.9217430   4.3043870  18.4550730   3.9955010   3.6934670  31.0302700
   3.8562780   4.5657470  31.3990100   3.1136370   3.3507480  30.8850640
  10.3184390   8.6110540  22.3367830  10.7580300   9.3534870  21.9223220
  10.2571280   8.8537110  23.2606790   5.7935360   9.6356370  33.2387850
   5.7650790  10.0399320  32.3716280   5.6300330   8.7066730  33.0759450
   2.3088290   2.2917080  21.1404970   2.1885890   3.0179170  20.5286240
   1.9989180   1.5219990  20.6632880  17.7450180  10.4183470  34.5352020
  18.2209900  10.8966360  35.2141100  18.3657340  10.3500960  33.8097520
  17.1483430   7.6096320  31.6952030  17.2746490   7.3708200  30.7769210
  17.1904810   6.7780860  32.1674110  11.0100170  11.3124320  30.2646840
  11.5244840  11.2232330  31.0669270  10.1669250  11.6584020  30.5574750
  12.9854570  11.5979660  19.6930840  12.8255710  11.3082600  20.5912670
  12.8201280  10.8219790  19.1576070   5.4642950  11.3778190  21.4702460
   5.2885430  10.4613730  21.2570260   4.6098690  11.7365480  21.7100260
  12.6880700   9.1067220  18.2528840  11.9945860   9.1044510  17.5931120
  13.4303560   8.6826540  17.8223010  12.2530630  10.7329930  22.3277330
  12.7087580   9.9519310  22.6415950  12.5923150  11.4436750  22.8718510
   6.5002980   1.9785800  17.7697150   5.9319880   1.5304050  17.1433060
   7.2091980   2.3378580  17.2362300   7.7269300   2.7274360  27.1272500
   8.0939430   2.2532930  27.8733840   7.5374360   3.6015930  27.4680840
   5.5168670   1.7683000  29.4456710   5.2125740   2.6474980  29.6707070
   6.4715130   1.8282790  29.4814150   4.0450460   5.9743990  20.0423560
   3.2712720   5.4341610  19.8822280   4.7745090   5.4550600  19.7041320
  14.8038440   4.9709350  25.8349950  15.5237560   5.4664640  25.4446060
  14.6020260   4.2927240  25.1903820  10.1857240   5.0418410  31.7218950
  10.1194550   4.1214080  31.4676540   9.5562380   5.1393850  32.4363590
   4.0887860   5.6424370  23.6802370   4.6066530   4.8392630  23.6259260
   3.6371880   5.5803510  24.5219200   8.9757360   6.9090650  18.9529670
   9.3173060   7.6532880  18.4572990   8.1470070   7.2221770  19.3154500
   4.7745520   3.0669980  33.4767620   4.4745660   3.2127160  32.5795440
   5.5456760   2.5075270  33.3841010  10.1173970   7.8638980  31.4722750
  10.1318510   6.9319940  31.2541660   9.4099070   7.9498740  32.1112520
  15.2511040   2.0478800  17.7421360  15.1674760   2.4793020  16.8917800
  15.9705230   2.5077150  18.1748180  16.3285180   4.5046320  30.8191330
  15.6033370   5.0975100  30.6220720  16.8560640   4.4969860  30.0204700
  16.2798290   8.9021060  20.4703490  15.6374450   8.2476680  20.7447210
  15.8928950   9.3076150  19.6944160  11.8584770   6.2306490  24.3175180
  12.2108590   5.6334620  23.6576550  10.9747100   5.9050720  24.4883430
   7.9448050   6.9904180  21.7245590   8.6319180   7.5373390  22.1053180
   7.1580470   7.5344910  21.7595200   7.2475260   3.9950210  21.3370950
   7.7038040   4.8055460  21.5631140   6.8963470   3.6773350  22.1689440
   9.5507870   9.5056550  28.5663250  10.1950090   9.7115930  29.2436670
   9.9137310   8.7444950  28.1134100  10.8239950   7.5088900  27.2840700
  11.4662180   6.8082060  27.3972870  11.3489300   8.2887340  27.1037590
  14.6695670   7.7937520  17.0079840  14.4433250   7.0767960  17.6004480
  14.2791870   7.5449960  16.1701590  12.5977570   8.3083800  30.4876760
  12.9333810   8.8950490  31.1654680  11.6777910   8.1776510  30.7174550
  14.2511920   5.7109460  18.6694000  13.9633620   6.1722150  19.4571880
  15.0464090   5.2507230  18.9378220   8.4266150   8.3575130  33.6564820
   8.1063020   7.6384370  34.2010510   7.7524510   9.0330200  33.7300880
   6.4680320   9.2035580  18.5997970   6.4590420   9.9365270  17.9842480
   5.5478680   8.9567160  18.6924930   9.4539920   9.2663820  17.2623160
   9.5551900   9.0627810  16.3325140   8.5541660   9.0122100  17.4670940
   8.0958030  11.7850140  21.9570830   8.3499530  11.7471530  21.0350200
   7.1470510  11.6583470  21.9499080  14.1010610   2.7042020  23.5329340
  13.1600750   2.7192250  23.7077030  14.4154680   1.9177980  23.9789640
   4.0792250   4.3861620  17.0933300   4.8455520   4.2742980  17.6558730
   4.1566940   3.6899590  16.4410070  16.1036190   9.8750870  25.2083600
  16.2283610  10.6982040  25.6807410  16.9701750   9.6641600  24.8607750
   3.5753720  11.9682080  24.8800730   4.3116200  11.4197540  25.1509300
   3.9594640  12.8338090  24.7406720   2.5812000  11.1528150  34.0686310
   3.3824730  11.4740200  34.4821710   2.0663820  10.7923730  34.7906220
   6.6856030  11.1412390  16.7026300   7.4784640  11.4301220  16.2508090
   6.1660380  10.7104560  16.0238780  11.4176630   7.2608020  34.0161720
  10.8114790   7.2839620  33.2757470  11.1130740   6.5291060  34.5528970
  12.8477000  10.9888310  32.6271130  13.7998750  10.9046330  32.5771370
  12.7005220  11.6530020  33.3004920  15.7386200  10.3682520  18.1263040
  15.4527710   9.9547660  17.3117220  15.5405750  11.2970230  18.0063560
   7.2033430   6.3615800  16.5668650   7.0984070   5.7468150  17.2930030
   7.0357650   5.8381690  15.7831660   7.3547750   5.0472600  32.5457880
   6.5893420   5.6157600  32.4612550   7.5363710   4.7548810  31.6526110
  10.4436160   5.4235830  17.1710640   9.8946260   5.8705130  17.8153380
  11.0655420   4.9185080  17.6948310  14.4971100   6.7777930  33.1032900
  15.2380570   7.1153690  32.6000360  13.7343780   6.9469990  32.5502670
   2.3332890   1.7831200  33.9072430   2.3738230   1.4845070  34.8157660
   3.1878390   2.1838810  33.7479950   6.1111280   4.3826750  19.0675940
   6.5327700   4.2166620  19.9107330   6.2362120   3.5726980  18.5731080
   8.6238920   3.4064360  16.3153040   9.1444580   2.6913380  15.9494190
   9.2707320   4.0450230  16.6153550  13.1716760   4.8292760  31.6388110
  13.5857780   4.9837840  32.4878530  12.2367760   4.9547980  31.8013890
   7.9331990   4.7813240  29.6084040   8.3520100   5.6245970  29.4360280
   7.0140620   4.9185280  29.3790820  10.2695890   2.5129420  30.9921880
  10.3892100   1.9170560  31.7316720  11.1289890   2.5499110  30.5723180
  12.6083790   3.0666610  29.5684390  12.0819010   3.5909230  28.9649530
  12.9515130   3.6994000  30.1994120   5.7839410  11.0866250  30.7241770
   5.2460500  11.8112310  30.4050470   6.0373370  10.6096590  29.9339110
   8.6401620  12.3217460  30.9828420   8.5660320  13.2252600  31.2900790
   7.7380460  12.0029360  30.9550490   9.1886950  11.4875970  18.6054780
  10.0837740  11.8260940  18.6273540   9.2204580  10.7655380  17.9779060
   2.8283110   6.8603020  16.8341780   3.2657980   7.4032690  17.4899360
   3.3130840   6.0349970  16.8438120   4.6390830   7.9801060  21.9464010
   4.3386370   7.8566030  22.8467920   4.5328320   7.1209650  21.5379740
  16.1681300  10.0179640  31.3120980  15.5683290  10.0772200  30.5684900
  16.2975200   9.0784620  31.4417830  17.4082750   7.7597460  16.6490690
  16.5775710   7.8274110  17.1197920  17.5854580   8.6501580  16.3457550
  16.8639210   4.5044940  19.1524890  17.6258120   5.0741590  19.2584580
  16.8793580   3.9372140  19.9233200  17.8699180   5.3595040  23.9966820
  18.2408010   4.5762360  23.5902790  18.5101110   6.0484140  23.8184120
  14.8532940   6.7431620  29.4097140  14.0392780   7.1728780  29.6722930
  15.2607140   7.3550030  28.7966190  16.9158380   4.7979310  16.3097410
  17.1907220   5.7058190  16.1816630  16.7269120   4.7341840  17.2459400
  16.8123720   2.7348300  21.3026840  16.4367320   1.9676230  20.8708130
  16.0826840   3.1171000  21.7901770  16.2023340   1.8819820  30.9366360
  15.9709430   1.6532570  30.0364310  16.4627890   2.8019370  30.8911250
  14.9108990  11.4950220  22.9365410  15.5068060  11.1734790  22.2599830
  15.1687140  11.0222040  23.7278680   2.8171560   7.9268130  33.0856040
   2.7741190   7.5561040  33.9670500   2.9482570   8.8645700  33.2257860
   6.5177590   9.4827720  28.6865760   6.2768950   9.7502280  27.7996280
   7.4580230   9.6533450  28.7416620  17.7781750  11.5022100  29.4876400
  17.2840030  11.8990970  28.7703530  17.1695040  10.8771310  29.8813680
   2.6559590  10.8730380  30.2053820   2.0619910  10.7415080  30.9443860
   2.6483430  10.0368520  29.7395920  15.4621200  12.1445520  26.7663140
  15.0024170  12.8961330  26.3921160  14.8333660  11.4251990  26.7077940
   5.8916920  10.4533760  25.9411270   6.4081940   9.8421120  25.4159530
   6.5414300  10.9562540  26.4322280   8.6312420  11.3442250  26.7680250
   8.9190230  11.0896550  25.8913260   9.1435640  10.7919610  27.3585820
   8.6984780  12.2658350  34.1348450   9.6252090  12.0302620  34.1784410
   8.6835210  13.0930350  33.6534480  16.9329840  11.8083920  21.1322700
  17.1082030  11.1221660  20.4883620  16.2351410  12.3330970  20.7399370
   4.7757490  12.1978760  18.6858010   5.5076310  11.9138040  18.1381900
   5.0351160  11.9592040  19.5757390   3.9372280   8.3143490  18.6904340
   3.3081160   8.7828590  19.2390170   4.0520110   7.4692710  19.1250530
  15.2662340  11.4928210  33.9589490  16.0587660  10.9977440  33.7515450
  15.5595490  12.1718350  34.5665100   9.5240040   4.1428170   6.7214810
   8.7482140   3.6628610   7.0113380  10.1752970   3.4633820   6.5470970
   3.5405870   4.4547980   7.5990570   2.7090750   4.1996690   7.9987080
   4.1486850   4.5258750   8.3348490  13.5447470   8.5488360   5.5013940
  13.0829000   7.7775600   5.8301110  14.3573020   8.5754430   6.0066390
   3.5207130   8.4888070   7.7948590   3.8235170   7.5985810   7.6158810
   4.2650720   9.0458290   7.5670840   9.7710780  10.8346370   5.1217930
   9.1522220  11.2903870   4.5512370  10.6262560  10.9897830   4.7207630
   8.9649030   6.8185360   6.7284970   8.8957310   5.8775300   6.5674100
   9.7268890   6.9086770   7.3007540  10.6374130   5.7185610   2.5149840
  10.0191400   6.1835060   1.9512560  11.1497380   6.4113090   2.9319350
   5.5005890   5.2461480   9.1933440   5.1675270   5.8730400   9.8354510
   5.6772570   5.7723360   8.4135110   4.7124990   7.2142280  11.0082620
   5.3298990   7.8893360  10.7267070   3.8518110   7.6230260  10.9170120
  15.6302580   8.6781690   8.9237260  14.9466100   9.3480800   8.9153930
  16.1696870   8.8762340   8.1582120  13.1661320  10.5225820   7.6382440
  13.1788480  10.1188110   6.7704700  12.6136540  11.2973110   7.5343870
  14.4606740   7.2442040   2.7272610  14.3503070   6.3016370   2.8522030
  14.4574990   7.6057680   3.6135370  12.5646760   5.4255660   8.9665050
  12.9815550   5.2115770   8.1318510  13.2886580   5.6828450   9.5373670
  10.0027020   2.8707360   2.0835100   9.0756300   2.8044740   2.3123570
  10.1551840   3.8087490   1.9690340  16.5108860   3.8242880   9.0581290
  15.6827490   3.8935970   8.5831420  17.1059340   4.4097190   8.5897120
  14.0324310   4.4327660   2.5870350  13.4136730   4.0947210   1.9396650
  14.0148760   3.7887420   3.2949540   5.6083660   3.3972100   4.8654830
   5.2040660   2.6849350   4.3700730   5.6946780   3.0525340   5.7542870
   6.0765360   7.0839660   7.0294040   5.7793650   6.4785130   6.3501820
   7.0265180   7.1216970   6.9183400  14.1650970  10.6571530  10.6917140
  13.6881530  11.4643720  10.4989750  13.4812760  10.0049860  10.8443350
   5.1683790   6.8221350  13.6801840   4.2712320   7.0461320  13.9275240
   5.1936660   6.9456290  12.7313240   3.9955010   3.6934670  12.2559210
   3.8562780   4.5657470  12.6246610   3.1136370   3.3507480  12.1107150
  10.3184390   8.6110540   3.5624340  10.7580300   9.3534870   3.1479730
  10.2571280   8.8537110   4.4863300   5.7935360   9.6356370  14.4644360
   5.7650790  10.0399320  13.5972790   5.6300330   8.7066730  14.3015960
   2.3088290   2.2917080   2.3661480   2.1885890   3.0179170   1.7542750
   1.9989180   1.5219990   1.8889390  17.7450180  10.4183470  15.7608530
  18.2209900  10.8966360  16.4397610  18.3657340  10.3500960  15.0354030
  17.1483430   7.6096320  12.9208540  17.2746490   7.3708200  12.0025720
  17.1904810   6.7780860  13.3930620  11.0100170  11.3124320  11.4903350
  11.5244840  11.2232330  12.2925780  10.1669250  11.6584020  11.7831260
   5.4642950  11.3778190   2.6958970   5.2885430  10.4613730   2.4826770
   4.6098690  11.7365480   2.9356770  12.2530630  10.7329930   3.5533840
  12.7087580   9.9519310   3.8672460  12.5923150  11.4436750   4.0975020
   7.7269300   2.7274360   8.3529010   8.0939430   2.2532930   9.0990350
   7.5374360   3.6015930   8.6937350   5.5168670   1.7683000  10.6713220
   5.2125740   2.6474980  10.8963580   6.4715130   1.8282790  10.7070660
  14.8038440   4.9709350   7.0606460  15.5237560   5.4664640   6.6702570
  14.6020260   4.2927240   6.4160330  10.1857240   5.0418410  12.9475460
  10.1194550   4.1214080  12.6933050   9.5562380   5.1393850  13.6620100
   4.0887860   5.6424370   4.9058880   4.6066530   4.8392630   4.8515770
   3.6371880   5.5803510   5.7475710   4.7745520   3.0669980  14.7024130
   4.4745660   3.2127160  13.8051950   5.5456760   2.5075270  14.6097520
  10.1173970   7.8638980  12.6979260  10.1318510   6.9319940  12.4798170
   9.4099070   7.9498740  13.3369030  16.3285180   4.5046320  12.0447840
  15.6033370   5.0975100  11.8477230  16.8560640   4.4969860  11.2461210
  11.8584770   6.2306490   5.5431690  12.2108590   5.6334620   4.8833060
  10.9747100   5.9050720   5.7139940   7.9448050   6.9904180   2.9502100
   8.6319180   7.5373390   3.3309690   7.1580470   7.5344910   2.9851710
   7.2475260   3.9950210   2.5627460   7.7038040   4.8055460   2.7887650
   6.8963470   3.6773350   3.3945950   9.5507870   9.5056550   9.7919760
  10.1950090   9.7115930  10.4693180   9.9137310   8.7444950   9.3390610
  10.8239950   7.5088900   8.5097210  11.4662180   6.8082060   8.6229380
  11.3489300   8.2887340   8.3294100  12.5977570   8.3083800  11.7133270
  12.9333810   8.8950490  12.3911190  11.6777910   8.1776510  11.9431060
   8.4266150   8.3575130  14.8821330   8.1063020   7.6384370  15.4267020
   7.7524510   9.0330200  14.9557390   8.0958030  11.7850140   3.1827340
   8.3499530  11.7471530   2.2606710   7.1470510  11.6583470   3.1755590
  14.1010610   2.7042020   4.7585850  13.1600750   2.7192250   4.9333540
  14.4154680   1.9177980   5.2046150  16.1036190   9.8750870   6.4340110
  16.2283610  10.6982040   6.9063920  16.9701750   9.6641600   6.0864260
   3.5753720  11.9682080   6.1057240   4.3116200  11.4197540   6.3765810
   3.9594640  12.8338090   5.9663230   2.5812000  11.1528150  15.2942820
   3.3824730  11.4740200  15.7078220   2.0663820  10.7923730  16.0162730
  11.4176630   7.2608020  15.2418230  10.8114790   7.2839620  14.5013980
  11.1130740   6.5291060  15.7785480  12.8477000  10.9888310  13.8527640
  13.7998750  10.9046330  13.8027880  12.7005220  11.6530020  14.5261430
   7.3547750   5.0472600  13.7714390   6.5893420   5.6157600  13.6869060
   7.5363710   4.7548810  12.8782620  14.4971100   6.7777930  14.3289410
  15.2380570   7.1153690  13.8256870  13.7343780   6.9469990  13.7759180
   2.3332890   1.7831200  15.1328940   2.3738230   1.4845070  16.0414170
   3.1878390   2.1838810  14.9736460  13.1716760   4.8292760  12.8644620
  13.5857780   4.9837840  13.7135040  12.2367760   4.9547980  13.0270400
   7.9331990   4.7813240  10.8340550   8.3520100   5.6245970  10.6616790
   7.0140620   4.9185280  10.6047330  10.2695890   2.5129420  12.2178390
  10.3892100   1.9170560  12.9573230  11.1289890   2.5499110  11.7979690
  12.6083790   3.0666610  10.7940900  12.0819010   3.5909230  10.1906040
  12.9515130   3.6994000  11.4250630   5.7839410  11.0866250  11.9498280
   5.2460500  11.8112310  11.6306980   6.0373370  10.6096590  11.1595620
   8.6401620  12.3217460  12.2084930   8.5660320  13.2252600  12.5157300
   7.7380460  12.0029360  12.1807000   4.6390830   7.9801060   3.1720520
   4.3386370   7.8566030   4.0724430   4.5328320   7.1209650   2.7636250
  16.1681300  10.0179640  12.5377490  15.5683290  10.0772200  11.7941410
  16.2975200   9.0784620  12.6674340  17.8699180   5.3595040   5.2223330
  18.2408010   4.5762360   4.8159300  18.5101110   6.0484140   5.0440630
  14.8532940   6.7431620  10.6353650  14.0392780   7.1728780  10.8979440
  15.2607140   7.3550030  10.0222700  16.8123720   2.7348300   2.5283350
  16.4367320   1.9676230   2.0964640  16.0826840   3.1171000   3.0158280
  16.2023340   1.8819820  12.1622870  15.9709430   1.6532570  11.2620820
  16.4627890   2.8019370  12.1167760  14.9108990  11.4950220   4.1621920
  15.5068060  11.1734790   3.4856340  15.1687140  11.0222040   4.9535190
   2.8171560   7.9268130  14.3112550   2.7741190   7.5561040  15.1927010
   2.9482570   8.8645700  14.4514370   6.5177590   9.4827720   9.9122270
   6.2768950   9.7502280   9.0252790   7.4580230   9.6533450   9.9673130
  17.7781750  11.5022100  10.7132910  17.2840030  11.8990970   9.9960040
  17.1695040  10.8771310  11.1070190   2.6559590  10.8730380  11.4310330
   2.0619910  10.7415080  12.1700370   2.6483430  10.0368520  10.9652430
  15.4621200  12.1445520   7.9919650  15.0024170  12.8961330   7.6177670
  14.8333660  11.4251990   7.9334450   5.8916920  10.4533760   7.1667780
   6.4081940   9.8421120   6.6416040   6.5414300  10.9562540   7.6578790
   8.6312420  11.3442250   7.9936760   8.9190230  11.0896550   7.1169770
   9.1435640  10.7919610   8.5842330   8.6984780  12.2658350  15.3604960
   9.6252090  12.0302620  15.4040920   8.6835210  13.0930350  14.8790990
  16.9329840  11.8083920   2.3579210  17.1082030  11.1221660   1.7140130
  16.2351410  12.3330970   1.9655880  15.2662340  11.4928210  15.1846000
  16.0587660  10.9977440  14.9771960  15.5595490  12.1718350  15.7921610
  92.3278160 100.0948430  69.1095550  90.0000000  90.0000000  90.0000000
